/*--------------------------------*- C++ -*----------------------------------*\
| =========                 |                                                 |
| \\      /  F ield         | OpenFOAM: The Open Source CFD Toolbox           |
|  \\    /   O peration     | Version:                                        |
|   \\  /    A nd           | Website:  www.openfoam.com                      |
|    \\/     M anipulation  |                                                 |
\*---------------------------------------------------------------------------*/
FoamFile
{
    version     2.0;
    format      ascii;
    class       volScalarField;
    location    "900";
    object      epsilon;
}
// * * * * * * * * * * * * * * * * * * * * * * * * * * * * * * * * * * * * * //

dimensions      [0 2 -3 0 0 0 0];


internalField   nonuniform List<scalar> 
206582
(
0.000586274
0.000481153
0.000469323
0.000478933
0.000495514
0.000515452
0.000537339
0.000560357
0.000583145
0.000597348
0.000602765
0.000604506
0.000604364
0.000601368
0.000594773
0.000586308
0.000573918
0.000535649
0.000492903
0.000453957
0.000570879
0.00092267
0.000777589
0.000749695
0.000745146
0.000745855
0.000748132
0.000751038
0.000754278
0.000763761
0.000782985
0.000801969
0.000817577
0.000828538
0.000834973
0.000838508
0.000852925
0.000861242
0.000902083
0.000440149
0.000549505
0.000916001
0.000762061
0.000729073
0.000721697
0.000719957
0.000719648
0.000719716
0.000719856
0.000719977
0.000720794
0.000722772
0.000725161
0.000727291
0.000728744
0.00072949
0.000732355
0.000734369
0.000807108
0.000435403
0.000521799
0.000921097
0.000767227
0.000731457
0.000723048
0.000720908
0.000720396
0.000720276
0.000720202
0.000720058
0.000719793
0.000719493
0.00071924
0.000718976
0.00071868
0.000718327
0.00071818
0.000719295
0.000798423
0.000436335
0.000503309
0.000923617
0.000770598
0.000733779
0.000724505
0.00072204
0.000721386
0.00072116
0.000720993
0.000720734
0.000720363
0.000719813
0.000719173
0.000718484
0.000717817
0.000717228
0.000716728
0.00071962
0.000803318
0.000440709
0.000491145
0.00092704
0.000774096
0.000735155
0.000725911
0.000723163
0.000722364
0.000722075
0.000721844
0.000721521
0.000721115
0.000720456
0.000719652
0.000718827
0.000718041
0.000717363
0.000716968
0.000722537
0.000811696
0.000447546
0.000482683
0.000930872
0.000778011
0.000737079
0.000727112
0.000724299
0.000723378
0.000723001
0.000722687
0.000722337
0.000721875
0.000720906
0.000719918
0.000719041
0.000718388
0.000717684
0.000717618
0.000726421
0.000822439
0.000456585
0.000476167
0.000934251
0.000781758
0.000739277
0.000728466
0.00072543
0.000724362
0.000723902
0.000723507
0.000723143
0.000722601
0.000720811
0.000719077
0.000718342
0.000718292
0.000717865
0.000718496
0.000730823
0.000835134
0.000467614
0.000470365
0.000936258
0.000784676
0.000741287
0.000729896
0.000726445
0.00072524
0.000724676
0.000724219
0.000723897
0.00072339
0.00072118
0.000717858
0.000717445
0.00071822
0.000718131
0.000719578
0.000735245
0.000848731
0.00048044
0.000464388
0.000935986
0.000786111
0.000742641
0.000731064
0.00072722
0.000725897
0.000725238
0.000724699
0.00072435
0.00072413
0.000721746
0.000719155
0.000718532
0.000718622
0.000718515
0.000720655
0.000739627
0.000861638
0.00049475
0.000457637
0.000932665
0.000785542
0.000743013
0.000731596
0.0007276
0.000726238
0.00072551
0.000724804
0.000724282
0.000723828
0.00072244
0.000721064
0.000720111
0.000719266
0.000718783
0.000721363
0.000742665
0.000871556
0.000510365
0.000449789
0.000925715
0.00078264
0.000742215
0.000731426
0.000727599
0.000726244
0.000725549
0.000724636
0.000723793
0.000723131
0.000722163
0.000721209
0.000720236
0.000719238
0.000718701
0.000721328
0.000742719
0.000876241
0.000526982
0.000440791
0.000914822
0.000777303
0.000740203
0.00073065
0.000727224
0.000726006
0.000725337
0.000724401
0.000723505
0.000722649
0.000721643
0.000720704
0.000719669
0.000718577
0.000718071
0.000720402
0.000740149
0.000872693
0.000543345
0.000430806
0.000900023
0.000769652
0.000737001
0.00072924
0.000726642
0.000725668
0.000725142
0.000724339
0.000723542
0.000722521
0.000721227
0.00072015
0.000719
0.000717752
0.000717109
0.00071891
0.000735687
0.000861449
0.000556097
0.000420125
0.000881884
0.000760263
0.000732981
0.000727163
0.000726199
0.00072591
0.000725816
0.000725408
0.000724749
0.000723349
0.000721471
0.000719807
0.000718132
0.00071555
0.000713052
0.000714872
0.000729572
0.000846101
0.000560123
0.000408949
0.000862066
0.000750817
0.000729695
0.000726215
0.000726648
0.000728748
0.000729886
0.0007302
0.000729936
0.000727924
0.000724634
0.000721268
0.000718036
0.000714234
0.00071107
0.000711068
0.000721973
0.000827514
0.000555671
0.000397238
0.000845437
0.000747164
0.000733597
0.000733812
0.000736398
0.000739583
0.000742622
0.000745052
0.000746879
0.000744425
0.000739004
0.000731865
0.000725082
0.000719358
0.000714758
0.000712455
0.000718515
0.000810194
0.000550664
0.000384631
0.000849769
0.000772217
0.000769614
0.000775881
0.000781869
0.00078636
0.000789279
0.00079055
0.000790321
0.000788644
0.000783837
0.00077355
0.000760236
0.000747685
0.000736496
0.000727491
0.000725733
0.000800055
0.000546643
0.000370855
0.000924272
0.000888869
0.00089599
0.000901425
0.000902231
0.000899807
0.00089615
0.000892639
0.000890669
0.000891313
0.000893644
0.000893278
0.000888439
0.000879362
0.000864515
0.000844486
0.000825488
0.000861146
0.000533039
0.000358784
0.000380412
0.000381364
0.000370326
0.00035184
0.000331833
0.000313504
0.00029848
0.000287657
0.000281925
0.000282244
0.000289675
0.000303191
0.000327076
0.000360431
0.000399822
0.000439614
0.000473852
0.000498434
0.000525364
8.04961e-05
6.10779e-05
5.39245e-05
4.9852e-05
4.64778e-05
4.33233e-05
4.04375e-05
3.80258e-05
3.65148e-05
3.68022e-05
3.84061e-05
4.11774e-05
4.5221e-05
5.12664e-05
5.94809e-05
6.61768e-05
6.40343e-05
5.80879e-05
4.68304e-05
3.17309e-05
5.38784e-05
5.66042e-05
4.9593e-05
4.49093e-05
4.00148e-05
3.46657e-05
2.95453e-05
2.53008e-05
2.22131e-05
2.0271e-05
1.94198e-05
1.95757e-05
2.07455e-05
2.28818e-05
2.56926e-05
2.97175e-05
2.61087e-05
2.0666e-05
2.016e-05
2.21833e-05
4.19729e-05
3.87774e-05
3.81253e-05
3.86903e-05
3.77696e-05
3.46645e-05
3.01895e-05
2.5698e-05
2.22461e-05
2.02001e-05
1.92464e-05
1.89551e-05
1.91432e-05
1.97896e-05
2.09271e-05
2.28793e-05
1.74694e-05
9.83312e-06
1.0054e-05
1.83254e-05
4.25689e-05
3.10597e-05
2.79976e-05
2.99689e-05
3.26093e-05
3.32371e-05
3.11646e-05
2.75366e-05
2.41473e-05
2.21614e-05
2.16294e-05
2.1705e-05
2.1858e-05
2.21968e-05
2.30686e-05
2.44957e-05
1.73586e-05
6.74494e-06
6.32622e-06
1.70242e-05
4.52026e-05
3.3535e-05
2.7469e-05
2.42731e-05
2.68862e-05
3.0364e-05
3.12733e-05
2.93324e-05
2.65409e-05
2.4967e-05
2.50669e-05
2.56748e-05
2.56936e-05
2.56947e-05
2.59678e-05
2.68035e-05
1.83782e-05
5.50894e-06
4.74405e-06
1.68967e-05
4.86444e-05
3.64726e-05
2.99426e-05
2.58366e-05
2.40719e-05
2.85726e-05
3.19994e-05
3.18889e-05
3.00809e-05
2.95628e-05
3.10475e-05
3.25399e-05
3.19796e-05
3.09795e-05
3.013e-05
2.9646e-05
1.965e-05
4.70867e-06
3.95355e-06
1.75085e-05
5.23247e-05
3.9482e-05
3.23983e-05
2.78602e-05
2.4712e-05
2.90385e-05
3.43589e-05
3.57753e-05
3.52179e-05
3.67869e-05
4.11827e-05
4.39892e-05
4.16237e-05
3.79932e-05
3.50569e-05
3.22122e-05
2.01775e-05
3.77345e-06
3.49883e-06
1.87938e-05
5.57696e-05
4.22152e-05
3.45512e-05
2.95888e-05
2.6156e-05
3.11912e-05
3.82874e-05
4.09678e-05
4.20312e-05
4.70732e-05
5.63223e-05
6.10382e-05
5.60338e-05
4.62937e-05
3.90886e-05
3.23223e-05
1.87468e-05
2.40709e-06
3.44669e-06
2.06562e-05
5.85302e-05
4.43344e-05
3.61517e-05
3.08282e-05
2.71897e-05
3.40268e-05
4.30017e-05
4.67515e-05
4.92447e-05
5.8083e-05
7.25001e-05
7.78136e-05
6.89341e-05
4.53325e-05
3.64786e-05
2.86526e-05
1.57638e-05
1.74031e-06
4.20837e-06
2.24273e-05
6.02107e-05
4.55653e-05
3.70205e-05
3.1469e-05
2.77351e-05
3.66497e-05
4.74315e-05
5.18114e-05
5.43956e-05
6.58135e-05
8.18562e-05
7.77001e-05
5.97574e-05
4.38542e-05
3.28792e-05
2.4333e-05
1.32724e-05
1.85278e-06
5.51741e-06
2.43051e-05
6.05369e-05
4.57521e-05
3.70946e-05
3.15032e-05
2.82272e-05
3.83265e-05
5.06087e-05
5.54545e-05
5.59625e-05
6.78555e-05
7.85185e-05
6.94315e-05
5.45614e-05
4.19223e-05
3.09038e-05
2.15507e-05
1.23241e-05
4.53094e-06
7.22286e-06
2.63977e-05
5.9409e-05
4.48902e-05
3.64332e-05
3.10184e-05
2.83986e-05
3.84919e-05
5.18989e-05
5.74503e-05
5.4611e-05
6.35093e-05
6.86615e-05
5.96922e-05
4.70089e-05
3.67257e-05
2.84337e-05
2.00593e-05
1.31567e-05
9.51833e-06
9.22561e-06
2.87825e-05
5.69176e-05
4.31133e-05
3.51936e-05
3.01628e-05
2.77909e-05
3.66572e-05
5.03384e-05
5.67542e-05
5.14194e-05
5.52335e-05
5.72181e-05
4.83386e-05
3.65016e-05
2.68788e-05
2.03942e-05
1.59398e-05
1.29989e-05
1.38094e-05
1.82234e-05
3.14822e-05
5.33018e-05
4.06562e-05
3.35955e-05
2.9122e-05
2.63956e-05
3.23656e-05
4.47974e-05
5.29499e-05
4.71011e-05
4.69681e-05
4.62684e-05
3.81542e-05
2.72375e-05
1.76636e-05
1.0679e-05
7.86435e-06
8.26582e-06
1.28036e-05
2.33188e-05
3.43541e-05
4.88756e-05
3.78168e-05
3.1887e-05
2.81011e-05
2.55719e-05
2.63144e-05
3.42649e-05
4.37125e-05
4.32327e-05
4.08516e-05
3.8235e-05
3.23282e-05
2.46303e-05
1.57243e-05
6.05707e-06
3.19855e-06
3.65741e-06
7.02812e-06
1.66674e-05
3.68881e-05
4.39486e-05
3.49255e-05
3.03206e-05
2.73043e-05
2.51096e-05
2.31729e-05
2.16867e-05
2.83166e-05
3.29391e-05
3.37682e-05
3.24134e-05
2.86875e-05
2.31376e-05
1.51073e-05
6.47378e-06
3.16949e-06
3.64112e-06
6.83087e-06
1.62401e-05
3.84858e-05
3.87565e-05
3.22819e-05
2.90943e-05
2.68878e-05
2.50599e-05
2.32727e-05
2.15497e-05
1.96093e-05
1.74079e-05
1.61478e-05
1.91168e-05
1.825e-05
1.4052e-05
8.57089e-06
4.35524e-06
3.24255e-06
3.82728e-06
6.78944e-06
1.53608e-05
3.86146e-05
3.33833e-05
2.99523e-05
2.81626e-05
2.68091e-05
2.53663e-05
2.37943e-05
2.23705e-05
2.11001e-05
1.97941e-05
1.82009e-05
1.61613e-05
1.36301e-05
1.07917e-05
8.18635e-06
6.38565e-06
5.4869e-06
5.54321e-06
7.22197e-06
1.3355e-05
3.64235e-05
2.78096e-05
2.74152e-05
2.68548e-05
2.62893e-05
2.54209e-05
2.43598e-05
2.34488e-05
2.28388e-05
2.24857e-05
2.21354e-05
2.13919e-05
1.97927e-05
1.70434e-05
1.36499e-05
1.12125e-05
1.0224e-05
1.01667e-05
1.08468e-05
1.40467e-05
3.14194e-05
2.19916e-05
2.15095e-05
2.10961e-05
2.09059e-05
2.06112e-05
2.0285e-05
2.0077e-05
2.01002e-05
2.04038e-05
2.09367e-05
2.14847e-05
2.14987e-05
1.96864e-05
1.55836e-05
1.33811e-05
1.36824e-05
1.5831e-05
1.90274e-05
2.23674e-05
2.62334e-05
2.77882e-05
2.49457e-05
2.35821e-05
2.25064e-05
2.13957e-05
2.02546e-05
1.9182e-05
1.82904e-05
1.76846e-05
1.74729e-05
1.76734e-05
1.82798e-05
1.92819e-05
2.06785e-05
2.23734e-05
2.38697e-05
2.37314e-05
2.09809e-05
1.63396e-05
1.1228e-05
1.68762e-05
1.75971e-05
1.71043e-05
1.63854e-05
1.54077e-05
1.41587e-05
1.27509e-05
1.1348e-05
1.01008e-05
9.11598e-06
8.45355e-06
8.12697e-06
8.12512e-06
8.41534e-06
8.91952e-06
9.54208e-06
9.67619e-06
9.51247e-06
9.17335e-06
7.35502e-06
1.81542e-05
1.58917e-05
1.49127e-05
1.42946e-05
1.3774e-05
1.31001e-05
1.21346e-05
1.09084e-05
9.58754e-06
8.36999e-06
7.39501e-06
6.72725e-06
6.38671e-06
6.35429e-06
6.56077e-06
6.88627e-06
6.78753e-06
6.56412e-06
6.78714e-06
5.86448e-06
2.2643e-05
1.81963e-05
1.57851e-05
1.42419e-05
1.32897e-05
1.26939e-05
1.20717e-05
1.11465e-05
9.92919e-06
8.63456e-06
7.48114e-06
6.56652e-06
5.94128e-06
5.65009e-06
5.69296e-06
5.99313e-06
5.80374e-06
5.44827e-06
5.73708e-06
5.19628e-06
2.76357e-05
2.13962e-05
1.80623e-05
1.57148e-05
1.4038e-05
1.30972e-05
1.25167e-05
1.1771e-05
1.06505e-05
9.3287e-06
8.06997e-06
6.95756e-06
6.02158e-06
5.42006e-06
5.24026e-06
5.50848e-06
5.24751e-06
4.79508e-06
5.09607e-06
4.86441e-06
3.3073e-05
2.4964e-05
2.05702e-05
1.75022e-05
1.53085e-05
1.39306e-05
1.33063e-05
1.26877e-05
1.16626e-05
1.03505e-05
9.08746e-06
7.8302e-06
6.51536e-06
5.54643e-06
5.16892e-06
5.31281e-06
4.90609e-06
4.31492e-06
4.59111e-06
4.71108e-06
3.88202e-05
2.87185e-05
2.30827e-05
1.91689e-05
1.64759e-05
1.48237e-05
1.42756e-05
1.3874e-05
1.29921e-05
1.17225e-05
1.06729e-05
9.45105e-06
7.57758e-06
6.09454e-06
5.37383e-06
5.2497e-06
4.59688e-06
3.86694e-06
4.14331e-06
4.68696e-06
4.45713e-05
3.23131e-05
2.53149e-05
2.05088e-05
1.73548e-05
1.55635e-05
1.53124e-05
1.52769e-05
1.64965e-05
1.62578e-05
1.64073e-05
1.27721e-05
1.03112e-05
7.37098e-06
5.66496e-06
4.98222e-06
4.0574e-06
3.36483e-06
3.71811e-06
4.77473e-06
4.9863e-05
3.53204e-05
2.6973e-05
2.13591e-05
1.78608e-05
1.60828e-05
1.63246e-05
1.86471e-05
1.93869e-05
1.95741e-05
2.40569e-05
2.72943e-05
2.30313e-05
7.14937e-06
4.90022e-06
4.20045e-06
3.2722e-06
2.93987e-06
3.36319e-06
4.94416e-06
5.41491e-05
3.73427e-05
2.78555e-05
2.16588e-05
1.80034e-05
1.63727e-05
1.72139e-05
2.08091e-05
2.11762e-05
2.35239e-05
3.20599e-05
3.14744e-05
2.15624e-05
1.04247e-05
4.41578e-06
3.6458e-06
2.92978e-06
2.74819e-06
3.11137e-06
5.15774e-06
5.69279e-05
3.81366e-05
2.79314e-05
2.14841e-05
1.78943e-05
1.64879e-05
1.79317e-05
2.25517e-05
2.16287e-05
2.51339e-05
3.21222e-05
2.64786e-05
1.73821e-05
1.04522e-05
4.63659e-06
3.72892e-06
3.07167e-06
2.78545e-06
2.98632e-06
5.35401e-06
5.78793e-05
3.76877e-05
2.73525e-05
2.1024e-05
1.7675e-05
1.64956e-05
1.83815e-05
2.34716e-05
2.12057e-05
2.34864e-05
2.63377e-05
2.16208e-05
1.46796e-05
7.3761e-06
5.7143e-06
4.58682e-06
3.55277e-06
2.94365e-06
3.00582e-06
5.4557e-06
5.69481e-05
3.62027e-05
2.63956e-05
2.05056e-05
1.74735e-05
1.6415e-05
1.82936e-05
1.99849e-05
2.17277e-05
2.13465e-05
2.30947e-05
2.0266e-05
1.22448e-05
8.8828e-06
6.84223e-06
5.68561e-06
4.12937e-06
3.15597e-06
3.13631e-06
5.47992e-06
5.43312e-05
3.40317e-05
2.53697e-05
2.01395e-05
1.7412e-05
1.63061e-05
1.7742e-05
1.98036e-05
1.96405e-05
2.25949e-05
2.34726e-05
1.81565e-05
1.43411e-05
1.12131e-05
8.92265e-06
6.7376e-06
4.59687e-06
3.34431e-06
3.30695e-06
5.44328e-06
5.03831e-05
3.15656e-05
2.45203e-05
2.00824e-05
1.76318e-05
1.64608e-05
1.68379e-05
1.85847e-05
1.98164e-05
2.06308e-05
2.06091e-05
1.88944e-05
1.60229e-05
1.2845e-05
9.87283e-06
6.92533e-06
4.64903e-06
3.40119e-06
3.49309e-06
5.35518e-06
4.55051e-05
2.91806e-05
2.39894e-05
2.04229e-05
1.83153e-05
1.71701e-05
1.66874e-05
1.72592e-05
1.8304e-05
1.89669e-05
1.87666e-05
1.72348e-05
1.4483e-05
1.12699e-05
7.99277e-06
5.34286e-06
3.78618e-06
3.23466e-06
3.77457e-06
5.20591e-06
4.00265e-05
2.71287e-05
2.37462e-05
2.10123e-05
1.91321e-05
1.81477e-05
1.79295e-05
1.80197e-05
1.7946e-05
1.74177e-05
1.63497e-05
1.4504e-05
1.16373e-05
8.08487e-06
4.92857e-06
3.05653e-06
2.38629e-06
2.55216e-06
3.52523e-06
4.94523e-06
3.37641e-05
2.50161e-05
2.30789e-05
2.11945e-05
1.96944e-05
1.88047e-05
1.86942e-05
1.91477e-05
1.96525e-05
1.95752e-05
1.83433e-05
1.5627e-05
1.15625e-05
7.11346e-06
3.81682e-06
2.25399e-06
1.84849e-06
2.08404e-06
2.915e-06
4.41775e-06
2.6339e-05
2.22364e-05
2.1508e-05
2.06563e-05
1.99244e-05
1.94552e-05
1.95055e-05
2.01346e-05
2.11784e-05
2.21422e-05
2.22384e-05
2.05284e-05
1.65481e-05
1.10554e-05
6.43601e-06
3.83671e-06
2.67033e-06
2.33184e-06
2.60769e-06
3.64081e-06
1.70841e-05
1.64251e-05
1.63528e-05
1.69492e-05
1.76308e-05
1.82679e-05
1.89408e-05
1.97891e-05
2.0919e-05
2.23004e-05
2.36766e-05
2.4277e-05
2.20329e-05
1.46891e-05
8.41457e-06
4.80785e-06
3.05974e-06
2.42462e-06
2.43842e-06
2.91993e-06
1.44577e-05
1.45042e-05
1.46288e-05
1.46469e-05
1.452e-05
1.42971e-05
1.40537e-05
1.38633e-05
1.37818e-05
1.38414e-05
1.40383e-05
1.43349e-05
1.46703e-05
1.49757e-05
1.51799e-05
1.51604e-05
1.45639e-05
1.31798e-05
1.09353e-05
7.73737e-06
1.17551e-05
1.14533e-05
1.09449e-05
1.04806e-05
1.00423e-05
9.57201e-06
9.05265e-06
8.51036e-06
7.99671e-06
7.56617e-06
7.2571e-06
7.08014e-06
7.02303e-06
7.05956e-06
7.1578e-06
7.29796e-06
7.48904e-06
7.76928e-06
7.96269e-06
6.85345e-06
1.54724e-05
1.25718e-05
1.11592e-05
1.03998e-05
9.88077e-06
9.4131e-06
8.90702e-06
8.32165e-06
7.67374e-06
7.02947e-06
6.47038e-06
6.05433e-06
5.80549e-06
5.71324e-06
5.74434e-06
5.86828e-06
6.07725e-06
6.43433e-06
6.9203e-06
6.5016e-06
1.98056e-05
1.46841e-05
1.23965e-05
1.13893e-05
1.06993e-05
1.00409e-05
9.40748e-06
8.73554e-06
7.97717e-06
7.16017e-06
6.37541e-06
5.71105e-06
5.23148e-06
4.96326e-06
4.90084e-06
5.05796e-06
5.34038e-06
5.78999e-06
6.41361e-06
6.36504e-06
2.45473e-05
1.75257e-05
1.45125e-05
1.31122e-05
1.20592e-05
1.11139e-05
1.02809e-05
9.48684e-06
8.62643e-06
7.67344e-06
6.70972e-06
5.8227e-06
5.09822e-06
4.60891e-06
4.4117e-06
4.54004e-06
4.83037e-06
5.32737e-06
6.05469e-06
6.30624e-06
2.99309e-05
2.11793e-05
1.72425e-05
1.51579e-05
1.34879e-05
1.21196e-05
1.11178e-05
1.02819e-05
9.37717e-06
8.31675e-06
7.20775e-06
6.13987e-06
5.22223e-06
4.54889e-06
4.23801e-06
4.28144e-06
4.50411e-06
4.96044e-06
5.71659e-06
6.26665e-06
3.60419e-05
2.55575e-05
2.03983e-05
1.72156e-05
1.46853e-05
1.28761e-05
1.1832e-05
1.1101e-05
1.04474e-05
9.20401e-06
7.75129e-06
6.21926e-06
5.16098e-06
4.45843e-06
4.15105e-06
4.17179e-06
4.30713e-06
4.64912e-06
5.32988e-06
6.21256e-06
4.27513e-05
3.03394e-05
2.35992e-05
1.89681e-05
1.54811e-05
1.33062e-05
1.24365e-05
1.21026e-05
1.11408e-05
9.14444e-06
7.14513e-06
6.61335e-06
5.70825e-06
4.787e-06
4.34519e-06
4.2381e-06
4.22421e-06
4.38048e-06
4.88859e-06
6.13615e-06
4.96628e-05
3.49774e-05
2.63554e-05
2.01295e-05
1.58029e-05
1.34403e-05
1.32193e-05
1.27335e-05
1.0815e-05
8.80466e-06
7.816e-06
7.42443e-06
6.06137e-06
4.9786e-06
4.53648e-06
4.6706e-06
4.43774e-06
4.24609e-06
4.4858e-06
6.04986e-06
5.61281e-05
3.8806e-05
2.82308e-05
2.05662e-05
1.57208e-05
1.34979e-05
1.36838e-05
1.27532e-05
9.96353e-06
8.75069e-06
1.1297e-05
1.29855e-05
6.48964e-06
5.03128e-06
5.79325e-06
6.19135e-06
5.04091e-06
4.20801e-06
4.16768e-06
5.95878e-06
6.13758e-05
4.12567e-05
2.90183e-05
2.03799e-05
1.54639e-05
1.37024e-05
1.42471e-05
1.27007e-05
8.74275e-06
9.40484e-06
1.40291e-05
1.08341e-05
7.15428e-06
6.5859e-06
9.01101e-06
8.5886e-06
5.9312e-06
4.29855e-06
3.9304e-06
5.82993e-06
6.47369e-05
4.20697e-05
2.88365e-05
1.98756e-05
1.53479e-05
1.42626e-05
1.51165e-05
1.33403e-05
8.6289e-06
8.98448e-06
1.02782e-05
8.54489e-06
8.66735e-06
1.1361e-05
1.3414e-05
1.09585e-05
6.80167e-06
4.49431e-06
3.81932e-06
5.63285e-06
6.58618e-05
4.13937e-05
2.80863e-05
1.94133e-05
1.5641e-05
1.51962e-05
1.59204e-05
1.60265e-05
1.1786e-05
1.06455e-05
1.13102e-05
1.50629e-05
1.84172e-05
2.07493e-05
1.78785e-05
1.25834e-05
7.47187e-06
4.71483e-06
3.82159e-06
5.35075e-06
6.4802e-05
3.97007e-05
2.72786e-05
1.93421e-05
1.64304e-05
1.65836e-05
1.76952e-05
1.92345e-05
1.81311e-05
1.80491e-05
2.14249e-05
2.58363e-05
2.75192e-05
2.46175e-05
1.98429e-05
1.32132e-05
7.84917e-06
4.89666e-06
3.86432e-06
4.986e-06
6.19122e-05
3.75472e-05
2.68191e-05
1.99433e-05
1.76763e-05
1.81645e-05
1.99187e-05
2.23006e-05
2.51738e-05
2.83279e-05
3.09514e-05
3.17861e-05
3.02253e-05
2.67212e-05
1.99175e-05
1.28727e-05
7.80736e-06
4.94149e-06
3.87299e-06
4.5465e-06
5.7631e-05
3.54453e-05
2.70718e-05
2.13138e-05
1.91153e-05
1.96088e-05
2.18119e-05
2.46317e-05
2.76811e-05
3.05436e-05
3.25834e-05
3.30151e-05
3.11819e-05
2.55238e-05
1.76913e-05
1.10048e-05
6.84026e-06
4.67776e-06
3.79701e-06
4.03908e-06
5.19603e-05
3.33756e-05
2.74322e-05
2.28313e-05
2.07063e-05
2.09426e-05
2.30964e-05
2.63814e-05
2.9867e-05
3.27237e-05
3.40728e-05
3.29448e-05
2.83762e-05
2.0563e-05
1.2566e-05
6.86779e-06
4.2084e-06
3.46852e-06
3.51915e-06
3.45309e-06
4.44906e-05
3.07914e-05
2.70167e-05
2.36789e-05
2.18526e-05
2.1618e-05
2.29801e-05
2.56416e-05
2.89264e-05
3.17947e-05
3.28612e-05
3.06784e-05
2.46269e-05
1.61038e-05
8.63925e-06
4.22205e-06
2.665e-06
2.4997e-06
2.77595e-06
2.73098e-06
3.42929e-05
2.73333e-05
2.55287e-05
2.3639e-05
2.25551e-05
2.23457e-05
2.31566e-05
2.50015e-05
2.77011e-05
3.05884e-05
3.24004e-05
3.14062e-05
2.63599e-05
1.8183e-05
1.07189e-05
6.02412e-06
3.74129e-06
2.76108e-06
2.43242e-06
2.24245e-06
2.00102e-05
2.04179e-05
2.06511e-05
2.13946e-05
2.21676e-05
2.2903e-05
2.37635e-05
2.49997e-05
2.68365e-05
2.93289e-05
3.22778e-05
3.47908e-05
3.38207e-05
2.39617e-05
1.40734e-05
7.68759e-06
4.23114e-06
2.59716e-06
1.98736e-06
1.94701e-06
9.51376e-06
9.90576e-06
1.03618e-05
1.0785e-05
1.11307e-05
1.14079e-05
1.1646e-05
1.18699e-05
1.20882e-05
1.22878e-05
1.24331e-05
1.24721e-05
1.23529e-05
1.20449e-05
1.15425e-05
1.08776e-05
1.00747e-05
9.15916e-06
8.1061e-06
6.63257e-06
1.03019e-05
9.54461e-06
8.67796e-06
8.10475e-06
7.73542e-06
7.48544e-06
7.29591e-06
7.14174e-06
7.02187e-06
6.94188e-06
6.89917e-06
6.87553e-06
6.84226e-06
6.77362e-06
6.66738e-06
6.55682e-06
6.47694e-06
6.58158e-06
6.84081e-06
6.4814e-06
1.38e-05
9.78622e-06
8.09286e-06
7.55786e-06
7.36247e-06
7.23197e-06
7.0832e-06
6.89681e-06
6.68431e-06
6.47457e-06
6.29905e-06
6.17209e-06
6.08623e-06
6.02265e-06
5.96832e-06
5.90537e-06
5.8636e-06
6.02051e-06
6.39382e-06
6.44625e-06
1.72137e-05
1.06329e-05
7.97036e-06
7.38839e-06
7.56534e-06
7.73479e-06
7.65333e-06
7.36987e-06
6.99291e-06
6.58126e-06
6.19659e-06
5.88279e-06
5.66636e-06
5.56001e-06
5.52699e-06
5.52031e-06
5.54188e-06
5.75448e-06
6.17002e-06
6.49041e-06
2.09345e-05
1.24482e-05
9.10422e-06
8.60491e-06
8.79895e-06
8.88402e-06
8.7066e-06
8.30856e-06
7.76763e-06
7.15623e-06
6.56349e-06
6.03628e-06
5.64747e-06
5.42146e-06
5.31599e-06
5.28419e-06
5.30951e-06
5.54282e-06
5.99105e-06
6.56646e-06
2.53077e-05
1.53005e-05
1.12294e-05
1.0664e-05
1.05971e-05
1.02728e-05
9.77156e-06
9.23298e-06
8.62635e-06
7.91282e-06
7.22211e-06
6.64264e-06
6.18169e-06
5.78547e-06
5.49882e-06
5.31264e-06
5.21968e-06
5.37534e-06
5.79935e-06
6.64314e-06
3.06095e-05
1.92829e-05
1.43611e-05
1.33074e-05
1.2402e-05
1.13905e-05
1.0666e-05
1.00928e-05
9.83342e-06
9.402e-06
8.84722e-06
7.73564e-06
7.65332e-06
7.13117e-06
6.51906e-06
5.90956e-06
5.42933e-06
5.30271e-06
5.58077e-06
6.70097e-06
3.69837e-05
2.43939e-05
1.83502e-05
1.6119e-05
1.38331e-05
1.20639e-05
1.15005e-05
1.16419e-05
1.21177e-05
1.33895e-05
1.44892e-05
1.23636e-05
9.64197e-06
9.79102e-06
8.65348e-06
7.24912e-06
5.99798e-06
5.33388e-06
5.32974e-06
6.72357e-06
4.43438e-05
3.03259e-05
2.26918e-05
1.8532e-05
1.46233e-05
1.2498e-05
1.25843e-05
1.29002e-05
1.32022e-05
1.39137e-05
9.40578e-06
7.90088e-06
1.02907e-05
1.10231e-05
1.25157e-05
9.25358e-06
6.70372e-06
5.36475e-06
5.04796e-06
6.69172e-06
5.22297e-05
3.63601e-05
2.65851e-05
2.0033e-05
1.48056e-05
1.29441e-05
1.33907e-05
1.25726e-05
1.22445e-05
1.02217e-05
1.1011e-05
8.60714e-06
9.53457e-06
1.57148e-05
1.77786e-05
1.14284e-05
7.1975e-06
5.28663e-06
4.74416e-06
6.57963e-06
5.98004e-05
4.14967e-05
2.92841e-05
2.04543e-05
1.47369e-05
1.37088e-05
1.40546e-05
1.24405e-05
9.28381e-06
9.98816e-06
4.93904e-05
1.3303e-05
2.5042e-05
2.19973e-05
1.35859e-05
7.84878e-06
5.16039e-06
4.44673e-06
6.38056e-06
6.60406e-05
4.48478e-05
3.04434e-05
2.01099e-05
1.48899e-05
1.50341e-05
1.5132e-05
1.38473e-05
1.10195e-05
1.14903e-05
0.000258979
0.866857
2.54052e-05
3.59928e-05
2.51199e-05
1.5679e-05
8.52626e-06
5.18922e-06
4.22998e-06
6.09583e-06
7.01478e-05
4.61425e-05
3.03702e-05
1.95929e-05
1.57275e-05
1.6982e-05
1.75509e-05
1.65983e-05
1.27311e-05
1.17569e-05
1.45057e-05
2.26621e-05
4.04636e-05
4.10169e-05
2.75774e-05
1.7446e-05
9.18981e-06
5.33821e-06
4.15111e-06
5.73927e-06
7.1864e-05
4.58715e-05
2.99446e-05
1.95453e-05
1.73196e-05
1.90806e-05
2.22782e-05
2.22434e-05
2.41681e-05
2.77279e-05
3.58431e-05
4.52061e-05
5.0266e-05
4.71713e-05
3.02758e-05
1.84488e-05
9.81728e-06
5.58035e-06
4.16743e-06
5.32065e-06
7.14781e-05
4.48105e-05
2.99699e-05
2.08326e-05
1.90192e-05
2.12717e-05
2.54373e-05
3.04381e-05
3.61863e-05
4.26955e-05
4.94223e-05
5.52169e-05
5.6905e-05
4.7868e-05
3.12398e-05
1.85756e-05
1.01519e-05
5.79154e-06
4.21395e-06
4.84725e-06
6.93247e-05
4.36981e-05
3.13332e-05
2.31065e-05
2.0777e-05
2.29255e-05
2.76897e-05
3.38034e-05
4.05533e-05
4.74658e-05
5.41245e-05
5.91678e-05
5.82309e-05
4.55031e-05
2.98364e-05
1.75529e-05
9.80252e-06
5.74945e-06
4.17109e-06
4.32316e-06
6.50498e-05
4.22833e-05
3.29624e-05
2.61893e-05
2.36773e-05
2.48396e-05
2.90465e-05
3.55743e-05
4.33135e-05
5.10212e-05
5.72008e-05
5.94763e-05
5.4023e-05
3.95286e-05
2.49508e-05
1.36084e-05
7.0021e-06
4.48714e-06
4.05466e-06
3.73187e-06
5.75128e-05
3.96614e-05
3.33993e-05
2.83424e-05
2.62051e-05
2.65841e-05
2.92846e-05
3.41144e-05
4.05602e-05
4.75858e-05
5.30274e-05
5.35906e-05
4.60449e-05
3.16882e-05
1.83812e-05
8.73878e-06
4.02919e-06
3.09098e-06
3.32838e-06
2.9521e-06
4.45676e-05
3.52162e-05
3.1968e-05
2.88491e-05
2.7497e-05
2.77232e-05
2.94956e-05
3.28078e-05
3.75677e-05
4.30936e-05
4.76799e-05
4.83032e-05
4.19101e-05
2.94398e-05
1.76041e-05
9.57218e-06
5.55378e-06
3.78494e-06
2.93843e-06
2.2679e-06
2.34326e-05
2.55558e-05
2.61709e-05
2.69857e-05
2.77072e-05
2.83883e-05
2.93154e-05
3.08935e-05
3.35228e-05
3.74367e-05
4.2558e-05
4.79201e-05
4.94086e-05
3.75958e-05
2.32183e-05
1.28371e-05
6.89668e-06
3.8617e-06
2.49411e-06
2.04542e-06
7.51332e-06
7.59844e-06
7.99952e-06
8.48077e-06
8.95331e-06
9.38852e-06
9.771e-06
1.00778e-05
1.02768e-05
1.03291e-05
1.01987e-05
9.8679e-06
9.35154e-06
8.69962e-06
7.98505e-06
7.28732e-06
6.67838e-06
6.23829e-06
6.04819e-06
5.93253e-06
9.52425e-06
7.8785e-06
7.08746e-06
6.73574e-06
6.54212e-06
6.46892e-06
6.46766e-06
6.50459e-06
6.56647e-06
6.63296e-06
6.67024e-06
6.62747e-06
6.46868e-06
6.18814e-06
5.81942e-06
5.43254e-06
5.13144e-06
5.12839e-06
5.51256e-06
5.89188e-06
1.21024e-05
6.88331e-06
5.14923e-06
5.24343e-06
5.57699e-06
5.69297e-06
5.72853e-06
5.79426e-06
5.89841e-06
6.01863e-06
6.11989e-06
6.16211e-06
6.10228e-06
5.91624e-06
5.61805e-06
5.26432e-06
4.96125e-06
4.94844e-06
5.33482e-06
5.91948e-06
1.43859e-05
6.88555e-06
4.36375e-06
4.35729e-06
5.02292e-06
5.4488e-06
5.53681e-06
5.58809e-06
5.6895e-06
5.79593e-06
5.89307e-06
5.95834e-06
5.94551e-06
5.81767e-06
5.56999e-06
5.24487e-06
4.94241e-06
4.9117e-06
5.26521e-06
6.01688e-06
1.68347e-05
7.82809e-06
4.62473e-06
4.68905e-06
5.44465e-06
5.90121e-06
5.95574e-06
5.89599e-06
5.93545e-06
5.97435e-06
6.00762e-06
6.038e-06
6.00787e-06
5.87412e-06
5.62326e-06
5.28478e-06
4.95442e-06
4.88886e-06
5.21097e-06
6.14944e-06
1.9775e-05
9.53228e-06
5.49499e-06
5.61914e-06
6.47234e-06
6.91038e-06
6.90759e-06
6.73683e-06
6.56278e-06
6.53233e-06
6.58546e-06
6.59949e-06
6.52764e-06
6.33115e-06
5.96026e-06
5.48681e-06
5.03565e-06
4.87297e-06
5.13583e-06
6.28437e-06
2.35513e-05
1.20424e-05
6.98823e-06
7.09698e-06
7.85009e-06
7.9896e-06
7.80096e-06
7.89816e-06
7.65558e-06
1.15318e-05
1.55296e-05
9.718e-06
7.59302e-06
8.44455e-06
7.28728e-06
6.19273e-06
5.30939e-06
4.8952e-06
5.02896e-06
6.39489e-06
2.84485e-05
1.57175e-05
9.45146e-06
9.37972e-06
9.48651e-06
8.94123e-06
8.99515e-06
9.30072e-06
1.48467e-05
0.000257306
0.000224185
7.70924e-05
3.26509e-05
1.47733e-05
1.11365e-05
7.8459e-06
5.89432e-06
4.97393e-06
4.88994e-06
6.45606e-06
3.47523e-05
2.08e-05
1.31735e-05
1.24778e-05
1.12609e-05
1.015e-05
1.04119e-05
1.49158e-05
4.27729e-05
0.00877912
0.0265326
0.00264748
0.00010028
5.04283e-05
2.559e-05
1.18587e-05
6.94757e-06
5.11638e-06
4.72367e-06
6.44382e-06
4.24752e-05
2.7254e-05
1.80107e-05
1.5755e-05
1.27784e-05
1.13035e-05
1.27214e-05
3.34945e-05
0.00231498
0.00721123
0.6592
3.4625
0.00415549
0.000187829
3.82971e-05
1.5033e-05
7.73585e-06
5.15701e-06
4.52391e-06
6.3474e-06
5.11384e-05
3.44373e-05
2.30918e-05
1.82302e-05
1.36347e-05
1.2497e-05
1.53364e-05
0.000113179
0.00739015
0.00775713
0.000143513
0.00766399
0.000928775
0.000121936
3.8687e-05
1.73094e-05
8.44221e-06
5.05875e-06
4.30235e-06
6.17018e-06
5.97155e-05
4.09579e-05
2.70842e-05
1.92905e-05
1.39126e-05
1.41471e-05
1.82307e-05
8.39054e-05
0.00378303
0.00127908
0.000500178
0.000876364
0.000211541
7.40191e-05
3.94225e-05
2.04045e-05
9.79408e-06
5.18903e-06
4.11559e-06
5.91987e-06
6.70232e-05
4.55304e-05
2.91907e-05
1.90488e-05
1.42147e-05
1.64839e-05
2.27675e-05
2.59245e-05
3.7987e-05
0.000171012
0.000237948
0.000123241
0.000100661
6.68379e-05
4.151e-05
2.36908e-05
1.14205e-05
5.60008e-06
4.06964e-06
5.60628e-06
7.23563e-05
4.81822e-05
3.01668e-05
1.85965e-05
1.53004e-05
1.85951e-05
2.53022e-05
3.12193e-05
3.73308e-05
4.76668e-05
6.65495e-05
8.58336e-05
8.86607e-05
9.88648e-05
4.51322e-05
2.62522e-05
1.2989e-05
6.20577e-06
4.16884e-06
5.24712e-06
7.59745e-05
4.99503e-05
3.16691e-05
1.95778e-05
1.70408e-05
2.00934e-05
2.67338e-05
3.54895e-05
4.72456e-05
6.37486e-05
8.61907e-05
0.000107347
0.000119574
8.78278e-05
4.73437e-05
2.75912e-05
1.41054e-05
6.79705e-06
4.34431e-06
4.8459e-06
7.80835e-05
5.15742e-05
3.48696e-05
2.41305e-05
1.97393e-05
2.1473e-05
2.81934e-05
3.83642e-05
5.17322e-05
6.88533e-05
8.94788e-05
0.000110118
0.000111593
7.60733e-05
4.62436e-05
2.71625e-05
1.43107e-05
7.08285e-06
4.42767e-06
4.40089e-06
7.77139e-05
5.25661e-05
3.88778e-05
2.99963e-05
2.72578e-05
2.90838e-05
3.45608e-05
4.38692e-05
5.72269e-05
7.40863e-05
9.18608e-05
0.000103336
9.49258e-05
6.38838e-05
4.087e-05
2.36312e-05
1.20258e-05
5.95166e-06
4.3967e-06
3.88138e-06
7.23344e-05
5.1219e-05
4.13747e-05
3.42335e-05
3.19466e-05
3.3189e-05
3.73861e-05
4.47687e-05
5.54938e-05
6.88614e-05
8.18771e-05
8.75567e-05
7.65976e-05
5.18975e-05
3.26227e-05
1.7249e-05
7.48971e-06
3.80608e-06
3.72042e-06
3.14436e-06
5.74499e-05
4.60223e-05
4.06803e-05
3.59186e-05
3.42664e-05
3.50746e-05
3.81111e-05
4.34355e-05
5.11271e-05
6.06321e-05
6.96809e-05
7.3056e-05
6.43591e-05
4.55315e-05
2.84078e-05
1.5359e-05
7.97956e-06
5.11578e-06
3.53148e-06
2.39579e-06
2.74223e-05
3.19175e-05
3.30385e-05
3.38044e-05
3.42083e-05
3.45816e-05
3.55452e-05
3.76267e-05
4.12498e-05
4.67775e-05
5.43524e-05
6.31809e-05
6.81385e-05
5.53257e-05
3.62102e-05
2.05067e-05
1.09594e-05
5.90704e-06
3.41959e-06
2.38192e-06
6.65309e-06
6.13039e-06
6.31069e-06
6.64367e-06
6.97666e-06
7.27767e-06
7.51949e-06
7.6615e-06
7.65545e-06
7.47052e-06
7.11144e-06
6.62122e-06
6.06316e-06
5.49959e-06
4.97891e-06
4.54084e-06
4.23753e-06
4.17923e-06
4.5808e-06
5.51931e-06
8.49118e-06
5.67254e-06
5.0691e-06
5.34334e-06
5.58324e-06
5.61956e-06
5.63193e-06
5.70054e-06
5.79398e-06
5.84943e-06
5.80369e-06
5.61802e-06
5.29246e-06
4.86523e-06
4.39892e-06
3.96905e-06
3.67169e-06
3.71217e-06
4.27455e-06
5.34132e-06
1.00393e-05
4.52034e-06
3.28852e-06
4.12077e-06
5.40596e-06
5.88462e-06
5.47905e-06
5.13116e-06
5.13122e-06
5.28626e-06
5.41775e-06
5.41876e-06