/*--------------------------------*- C++ -*----------------------------------*\
| =========                 |                                                 |
| \\      /  F ield         | OpenFOAM: The Open Source CFD Toolbox           |
|  \\    /   O peration     | Version:                                        |
|   \\  /    A nd           | Website:  www.openfoam.com                      |
|    \\/     M anipulation  |                                                 |
\*---------------------------------------------------------------------------*/
FoamFile
{
    version     2.0;
    format      ascii;
    class       volScalarField;
    location    "900";
    object      k;
}
// * * * * * * * * * * * * * * * * * * * * * * * * * * * * * * * * * * * * * //

dimensions      [0 2 -2 0 0 0 0];


internalField   nonuniform List<scalar> 
206582
(
0.00110266
0.000965661
0.000949683
0.000962393
0.000984312
0.00101051
0.00103904
0.00106878
0.00109665
0.00111297
0.00111923
0.00112161
0.00112221
0.0011201
0.00111235
0.00110179
0.00108466
0.0010354
0.000979956
0.000928128
0.00108543
0.0002925
0.00020502
0.000192571
0.000190724
0.000191091
0.000192113
0.000193408
0.000194853
0.000200789
0.000211947
0.000223081
0.000232491
0.000239199
0.000243088
0.000245201
0.000254967
0.000261925
0.000294989
0.0009099
0.00106327
0.000288583
0.000195859
0.000181354
0.000178318
0.000177593
0.000177444
0.000177451
0.000177494
0.00017754
0.000177915
0.000178847
0.000179998
0.000181059
0.000181813
0.000182236
0.000183755
0.000185457
0.000230622
0.000903902
0.00102682
0.000294061
0.000198288
0.000182302
0.000178797
0.000177903
0.000177672
0.000177611
0.000177581
0.000177535
0.000177456
0.000177381
0.000177341
0.000177312
0.000177268
0.00017719
0.000177245
0.000178397
0.000226736
0.000905474
0.00100181
0.000298048
0.000200353
0.000183264
0.000179328
0.000178279
0.000177986
0.000177886
0.000177824
0.000177741
0.000177626
0.000177459
0.000177269
0.000177067
0.000176869
0.000176692
0.000176585
0.000178449
0.000229882
0.000911691
0.000985301
0.000302132
0.000202547
0.00018416
0.000179869
0.000178663
0.000178303
0.000178175
0.00017809
0.000177986
0.000177858
0.000177657
0.000177413
0.000177161
0.000176918
0.000176708
0.000176651
0.000179629
0.000234877
0.000921273
0.000973868
0.000306078
0.00020478
0.000185205
0.000180413
0.000179058
0.000178632
0.000178471
0.000178359
0.000178245
0.0001781
0.00017781
0.000177508
0.000177234
0.00017702
0.000176801
0.000176889
0.000181254
0.000241253
0.000933841
0.000965147
0.000309406
0.000206788
0.000186238
0.000180971
0.000179446
0.000178952
0.000178759
0.000178624
0.000178505
0.000178341
0.000177816
0.000177288
0.00017704
0.000176994
0.000176865
0.000177239
0.000183169
0.000248781
0.000949074
0.000957445
0.00031155
0.000208278
0.000187083
0.00018147
0.000179786
0.000179235
0.000179009
0.000178856
0.000178747
0.000178596
0.000177927
0.000176889
0.000176751
0.000176963
0.000176961
0.000177685
0.000185149
0.00025671
0.000966637
0.000949528
0.000311978
0.000208985
0.000187585
0.000181817
0.000180033
0.000179441
0.000179188
0.000179011
0.000178892
0.000178809
0.000178055
0.000177239
0.000177035
0.000177073
0.000177102
0.000178147
0.000187077
0.000263838
0.000986159
0.000940555
0.00031026
0.000208714
0.000187651
0.000181945
0.000180144
0.000179543
0.000179272
0.000179049
0.000178875
0.00017872
0.000178255
0.000177803
0.000177503
0.000177263
0.000177207
0.000178457
0.000188353
0.000268599
0.00100747
0.000930032
0.000306111
0.000207373
0.000187254
0.000181848
0.000180126
0.000179537
0.000179276
0.000178996
0.00017873
0.000178507
0.000178177
0.000177853
0.00017755
0.000177262
0.000177187
0.000178446
0.0001883
0.000269713
0.00103016
0.000917792
0.00029943
0.000204985
0.00018643
0.000181562
0.000179997
0.00017946
0.000179211
0.000178925
0.000178642
0.000178355
0.000178012
0.000177695
0.000177372
0.000177053
0.000176971
0.000178075
0.000187076
0.000266088
0.0010524
0.000903952
0.000290312
0.000201687
0.000185268
0.000181143
0.000179844
0.000179399
0.000179202
0.000178958
0.000178704
0.000178346
0.000177898
0.000177526
0.000177153
0.000176763
0.00017661
0.00017747
0.000185076
0.00025896
0.00106865
0.000888752
0.000279105
0.000197815
0.00018401
0.00018077
0.000179907
0.000179688
0.000179635
0.000179516
0.000179297
0.000178779
0.000178085
0.000177473
0.00017688
0.000176002
0.000175192
0.000175969
0.000182438
0.000249922
0.00107117
0.000872315
0.000266799
0.00019422
0.000183445
0.000181323
0.000181026
0.000181395
0.000181724
0.000181815
0.000181679
0.000180873
0.000179586
0.000178267
0.000177037
0.000175668
0.000174562
0.000174628
0.000179327
0.000238116
0.00106423
0.000854498
0.000256236
0.000193778
0.000186694
0.000186335
0.000187132
0.000188149
0.000189012
0.00018953
0.00018975
0.000188557
0.00018626
0.000183305
0.000180516
0.000178171
0.000176302
0.000175345
0.000177837
0.000225692
0.00106063
0.000834744
0.000258689
0.000208999
0.000207304
0.000210044
0.000212778
0.00021483
0.000216075
0.00021638
0.00021573
0.00021416
0.000211148
0.000205935
0.000199752
0.000193851
0.000188438
0.000183918
0.000182377
0.000217601
0.00105607
0.000812745
0.000332419
0.000303901
0.000309276
0.000313973
0.000316115
0.000316342
0.000315566
0.000314278
0.000312926
0.000311843
0.000310501
0.000306709
0.000301467
0.000294088
0.000283271
0.000269108
0.000254843
0.000268989
0.00103078
0.00079328
0.000825622
0.000824892
0.000807034
0.000779321
0.000749796
0.000722658
0.000700158
0.000683713
0.000674662
0.00067417
0.000683089
0.000699181
0.000729019
0.000772507
0.000825496
0.000880817
0.000931141
0.000972277
0.00101724
0.000300395
0.000246523
0.000225156
0.000212441
0.000201583
0.000191107
0.000181174
0.000172494
0.000167839
0.000168949
0.000174105
0.000182682
0.000194635
0.000211137
0.000233947
0.000252377
0.00024843
0.000233903
0.000203019
0.000156883
0.000232647
0.000111901
7.56147e-05
5.66027e-05
4.28629e-05
3.22023e-05
2.43077e-05
1.89569e-05
1.57014e-05
1.40759e-05
1.3708e-05
1.43217e-05
1.58124e-05
1.81098e-05
2.10392e-05
2.72687e-05
3.72305e-05
5.42897e-05
7.17363e-05
0.000123445
0.000192829
0.000122688
9.40715e-05
7.4059e-05
5.64708e-05
4.08403e-05
2.82492e-05
1.94351e-05
1.41281e-05
1.13765e-05
1.01564e-05
9.76197e-06
9.85686e-06
1.03175e-05
1.10934e-05
1.26699e-05
1.28403e-05
1.71697e-05
3.19415e-05
0.000108913
0.000193473
0.000133981
0.000111008
9.30473e-05
7.46067e-05
5.53936e-05
3.793e-05
2.47821e-05
1.67032e-05
1.26611e-05
1.10512e-05
1.05347e-05
1.04251e-05
1.0575e-05
1.11004e-05
1.20373e-05
1.00638e-05
8.6923e-06
1.84792e-05
0.000103912
0.000200757
0.000145824
0.000123809
0.000108033
9.09251e-05
7.00006e-05
4.84434e-05
3.09735e-05
1.9965e-05
1.4621e-05
1.27148e-05
1.21966e-05
1.19171e-05
1.18413e-05
1.20452e-05
1.26031e-05
9.79071e-06
6.06979e-06
1.32587e-05
0.000103586
0.00021037
0.000158735
0.000136286
0.000119408
0.000103824
8.20762e-05
5.73259e-05
3.62582e-05
2.3017e-05
1.70457e-05
1.53957e-05
1.51384e-05
1.45684e-05
1.40444e-05
1.36996e-05
1.36366e-05
1.00284e-05
4.86824e-06
1.10471e-05
0.000106282
0.000220447
0.000171694
0.000148196
0.000129519
0.000113494
9.07724e-05
6.33572e-05
3.96174e-05
2.53487e-05
1.99419e-05
1.95544e-05
1.99442e-05
1.87134e-05
1.71054e-05
1.58047e-05
1.47156e-05
1.01146e-05
3.95374e-06
1.02203e-05
0.000111677
0.000229621
0.000183604
0.000158587
0.000137759
0.000120245
9.63125e-05
6.67412e-05
4.12498e-05
2.71432e-05
2.34961e-05
2.54119e-05
2.68534e-05
2.47548e-05
2.07273e-05
1.76256e-05
1.49125e-05
9.39503e-06
2.92076e-06
1.13747e-05
0.000118864
0.00023673
0.000193412
0.000166567
0.000143472
0.000124444
9.96382e-05
6.86692e-05
4.21197e-05
2.86073e-05
2.708e-05
3.14438e-05
3.33296e-05
2.99932e-05
2.05389e-05
1.6661e-05
1.34131e-05
7.95578e-06
3.10749e-06
1.61119e-05
0.000125526
0.000240838
0.00020028
0.000171519
0.000146333
0.000126166
0.000101475
7.03655e-05
4.30377e-05
2.93992e-05
2.94175e-05
3.48141e-05
3.30232e-05
2.60308e-05
1.96073e-05
1.5009e-05
1.14218e-05
6.78983e-06
4.95904e-06
2.29993e-05
0.000132444
0.00024134
0.00020374
0.000173276
0.000146449
0.000125696
0.000102393
7.26129e-05
4.45465e-05
2.91019e-05
2.9681e-05
3.33152e-05
2.94531e-05
2.3446e-05
1.83723e-05
1.38118e-05
9.95387e-06
6.43914e-06
8.01409e-06
3.11587e-05
0.000140037
0.000238039
0.000203766
0.000172141
0.000144333
0.000123607
0.000102684
7.56388e-05
4.69348e-05
2.78688e-05
2.76572e-05
2.92704e-05
2.54348e-05
2.021e-05
1.60377e-05
1.25942e-05
9.14167e-06
6.87231e-06
1.10455e-05
4.00636e-05
0.000148569
0.000231149
0.000200718
0.000168774
0.000140758
0.000120605
0.000102478
7.91431e-05
5.0023e-05
2.64087e-05
2.44285e-05
2.46523e-05
2.08574e-05
1.59409e-05
1.20188e-05
9.36917e-06
7.63413e-06
7.29705e-06
1.38787e-05
4.80417e-05
0.000158104
0.000221191
0.0001952
0.000164037
0.000136617
0.000117401
0.000101922
8.27559e-05
5.41448e-05
2.71432e-05
2.21144e-05
2.06509e-05
1.72321e-05
1.3039e-05
9.4734e-06
6.61675e-06
5.53502e-06
7.03994e-06
1.59083e-05
5.28427e-05
0.000168
0.000208833
0.000187897
0.000158823
0.000132834
0.000114769
0.000101377
8.64382e-05
6.07206e-05
3.52065e-05
2.4003e-05
1.95386e-05
1.70497e-05
1.57744e-05
1.54926e-05
1.41969e-05
1.12467e-05
1.11312e-05
2.16687e-05
6.02255e-05
0.000176483
0.00019472
0.000179405
0.000153901
0.000130263
0.000113641
0.000101524
9.06204e-05
7.33528e-05
5.25565e-05
3.56629e-05
2.52499e-05
2.12827e-05
2.041e-05
1.97702e-05
1.66567e-05
1.34765e-05
1.50121e-05
2.82532e-05
6.80782e-05
0.000181312
0.0001793
0.000169878
0.000149603
0.000129534
0.000114931
0.000104141
9.60505e-05
8.78285e-05
7.66056e-05
6.10575e-05
4.52654e-05
3.51781e-05
2.84789e-05
2.37346e-05
1.86904e-05
1.49236e-05
1.68786e-05
2.92624e-05
6.59004e-05
0.000180909
0.000162565
0.000158536
0.000144918
0.000130493
0.000118633
0.000109176
0.000102654
9.83683e-05
9.47414e-05
8.99612e-05
8.27925e-05
7.27844e-05
6.01892e-05
4.6392e-05
3.42658e-05
2.71487e-05
2.60413e-05
3.26866e-05
5.87346e-05
0.000169883
0.0001442
0.000143005
0.000137074
0.000129633
0.00012252
0.000116206
0.000111886
0.00011002
0.000110335
0.000111653
0.000112009
0.000108724
9.91046e-05
8.23833e-05
6.4353e-05
5.33125e-05
4.96919e-05
5.12763e-05
6.40448e-05
0.000151064
0.000123746
0.00012267
0.000121433
0.000120785
0.000119852
0.000118942
0.000118595
0.000119225
0.000121006
0.000123696
0.000126426
0.000127095
0.000120965
0.000103204
8.97431e-05
8.6999e-05
9.29126e-05
0.000104136
0.000117177
0.000132161
0.000149942
0.000137367
0.000131137
0.000126332
0.000121494
0.00011652
0.000111754
0.000107655
0.000104771
0.000103583
0.000104155
0.000106448
0.000110378
0.000115881
0.000122603
0.000128604
0.000128703
0.000118728
0.000100667
7.82726e-05
0.000106472
9.62314e-05
8.80441e-05
7.9527e-05
7.05421e-05
6.14141e-05
5.26269e-05
4.47116e-05
3.81449e-05
3.32636e-05
3.02211e-05
2.89729e-05
2.92984e-05
3.08268e-05
3.30948e-05
3.60112e-05
4.08618e-05
4.88932e-05
5.7292e-05
5.82324e-05
0.000107906
0.000109005
0.000105324
9.84671e-05
8.91572e-05
7.8016e-05
6.57727e-05
5.34867e-05
4.23193e-05
3.3137e-05
2.63821e-05
2.20877e-05
1.99856e-05
1.96416e-05
2.05477e-05
2.22853e-05
2.57669e-05
3.25302e-05
4.26872e-05
4.97292e-05
0.000124722
0.000121927
0.000118384
0.000112812
0.000104394
9.30649e-05
7.89311e-05
6.33287e-05
4.83301e-05
3.5586e-05
2.59446e-05
1.94522e-05
1.56493e-05
1.39597e-05
1.38721e-05
1.5228e-05
1.86696e-05
2.53407e-05
3.58701e-05
4.57852e-05
0.000142348
0.000137164
0.000131421
0.000124485
0.000116342
0.000105117
8.94351e-05
7.07311e-05
5.22553e-05
3.65594e-05
2.49794e-05
1.73899e-05
1.2845e-05
1.04816e-05
9.71464e-06
1.10038e-05
1.42509e-05
2.08169e-05
3.15711e-05
4.38519e-05
0.000160385
0.000154315
0.00014579
0.000135595
0.000125234
0.000113511
9.59016e-05
7.39024e-05
5.23186e-05
3.43221e-05
2.19623e-05
1.45429e-05
1.02695e-05
7.87144e-06
7.29309e-06
8.48799e-06
1.14101e-05
1.77169e-05
2.84664e-05
4.30454e-05
0.000178378
0.000172657
0.000160395
0.000145634
0.000131996
0.000118594
9.82453e-05
7.27934e-05
4.87974e-05
2.89962e-05
1.73645e-05
1.15009e-05
8.13853e-06
6.32653e-06
5.94011e-06
6.97866e-06
9.54082e-06
1.56222e-05
2.65766e-05
4.30896e-05
0.000195458
0.000190818
0.000173641
0.000153236
0.000135917
0.000120457
9.69405e-05
6.85677e-05
4.76928e-05
2.18302e-05
1.34513e-05
9.92445e-06
7.97128e-06
6.16568e-06
5.4137e-06
6.07735e-06
8.35753e-06
1.46536e-05
2.57662e-05
4.38467e-05
0.000210446
0.00020716
0.000183922
0.000157309
0.000136536
0.000119287
9.30407e-05
6.9833e-05
3.23568e-05
1.68737e-05
1.5654e-05
1.68895e-05
1.46539e-05
5.88028e-06
4.76366e-06
5.37059e-06
7.88886e-06
1.57003e-05
2.60838e-05
4.50901e-05
0.000222085
0.00022017
0.000190123
0.000157458
0.000134019
0.000115894
8.81855e-05
6.18303e-05
2.59009e-05
1.6375e-05
1.91735e-05
1.8842e-05
1.37465e-05
7.53596e-06
4.80602e-06
5.92799e-06
1.0377e-05
1.8628e-05
2.72616e-05
4.65641e-05
0.00022933
0.000228888
0.000192008
0.000154192
0.000129261
0.000111539
8.45778e-05
5.4176e-05
2.15938e-05
1.60396e-05
1.90171e-05
1.59217e-05
1.11343e-05
7.79512e-06
6.61081e-06
9.86545e-06
1.69684e-05
2.30825e-05
2.8796e-05
4.7795e-05
0.000231611
0.000233151
0.000190298
0.000148768
0.000123444
0.000107343
8.32996e-05
4.8776e-05
1.96776e-05
1.50461e-05
1.63404e-05
1.39461e-05
1.08668e-05
1.04112e-05
1.40075e-05
2.12134e-05
2.68916e-05
2.81167e-05
3.09075e-05
4.84191e-05
0.000228941
0.000233568
0.000186382
0.00014272
0.000117681
0.000103917
8.39316e-05
5.00216e-05
2.48242e-05
1.66529e-05
1.85289e-05
2.16146e-05
3.09184e-05
3.06955e-05
3.32614e-05
4.03697e-05
3.82365e-05
3.30867e-05
3.31682e-05
4.85479e-05
0.000221837
0.00023117
0.000181848
0.00013751
0.000112997
0.000101564
8.6765e-05
6.4754e-05
4.91441e-05
3.28878e-05
3.9581e-05
6.67751e-05
7.33469e-05
7.49698e-05
7.17398e-05
6.25319e-05
4.84082e-05
3.74282e-05
3.51555e-05
4.82792e-05
0.000211095
0.000226869
0.00017801
0.000134324
0.000110354
0.000100944
9.43619e-05
8.40351e-05
7.56416e-05
7.7319e-05
8.63804e-05
9.78264e-05
0.000105187
0.000104465
9.49883e-05
7.55917e-05
5.48039e-05
4.0411e-05
3.67071e-05
4.76531e-05
0.00019756
0.000220817
0.000175574
0.000134284
0.00011146
0.000102443
0.000100615
0.000100146
9.88502e-05
9.9335e-05
0.00010277
0.000107545
0.000108838
0.000103457
8.82623e-05
6.71008e-05
4.98948e-05
4.01285e-05
3.82062e-05
4.73386e-05
0.00018187
0.000211548
0.000174781
0.000137908
0.000114827
0.000104409
0.000103561
0.000107767
0.000112677
0.000115302
0.000114621
0.000111957
0.000104063
8.72657e-05
6.47989e-05
4.49918e-05
3.4722e-05
3.29666e-05
3.674e-05
4.44219e-05
0.000163042
0.000196878
0.000170698
0.000141169
0.000120074
0.000108094
0.000104748
0.000108023
0.00011488
0.000121778
0.000125133
0.000121743
0.000109017
8.63653e-05
5.86376e-05
3.7577e-05
2.85342e-05
2.78485e-05
3.22546e-05
4.0184e-05
0.000138908
0.000168481
0.000155855
0.000139124
0.000125607
0.000116326
0.000112366
0.000113988
0.000120847
0.00013143
0.000142813
0.000150126
0.0001468
0.000125668
8.90156e-05
5.61324e-05
3.74545e-05
3.03775e-05
3.02141e-05
3.50808e-05
0.000105032
0.00010356
0.00010386
0.000106468
0.000109382
0.000112187
0.000115248
0.000119122
0.000124187
0.000130274
0.000136394
0.000139846
0.000133702
0.000105622
7.42291e-05
5.12765e-05
3.7009e-05
2.99898e-05
2.83396e-05
3.0607e-05
9.69635e-05
9.61416e-05
9.59654e-05
9.54659e-05
9.44012e-05
9.29412e-05
9.13984e-05
9.01005e-05
8.93258e-05
8.92566e-05
8.99057e-05
9.11361e-05
9.26999e-05
9.43033e-05
9.56257e-05
9.60917e-05
9.40229e-05
8.8043e-05
7.74637e-05
6.10211e-05
8.10366e-05
8.40868e-05
8.23085e-05
7.89053e-05
7.46165e-05
6.96858e-05
6.44215e-05
5.92709e-05
5.47451e-05
5.12917e-05
4.91843e-05
4.84494e-05
4.88659e-05
5.00271e-05
5.14764e-05
5.30055e-05
5.54731e-05
5.96361e-05
6.40145e-05
5.57302e-05
9.54986e-05
9.16943e-05
8.98465e-05
8.84815e-05
8.58012e-05
8.11509e-05
7.47554e-05
6.72446e-05
5.95036e-05
5.24664e-05
4.69248e-05
4.33234e-05
4.16915e-05
4.16922e-05
4.28024e-05
4.46481e-05
4.78032e-05
5.29328e-05
5.93066e-05
5.36551e-05
0.000112638
0.000100365
9.58037e-05
9.57916e-05
9.46957e-05
9.05548e-05
8.37198e-05
7.47876e-05
6.47651e-05
5.48525e-05
4.63103e-05
4.00079e-05
3.62233e-05
3.47589e-05
3.52055e-05
3.7578e-05
4.20637e-05
4.89243e-05
5.70528e-05
5.28861e-05
0.000130025
0.00011309
0.000106671
0.000105548
0.000103334
9.85557e-05
9.0893e-05
8.06202e-05
6.87672e-05
5.65271e-05
4.56977e-05
3.75041e-05
3.22029e-05
2.95111e-05
2.92293e-05
3.19052e-05
3.72123e-05
4.5452e-05
5.52873e-05
5.259e-05
0.000148464
0.000130127
0.000121496
0.000117347
0.000111384
0.000103898
9.47477e-05
8.30328e-05
6.95292e-05
5.48431e-05
4.21623e-05
3.30946e-05
2.77161e-05
2.45832e-05
2.45543e-05
2.75701e-05
3.34036e-05
4.24675e-05
5.3492e-05
5.24124e-05
0.00016812
0.000150885
0.000138822
0.00012883
0.000117056
0.000106203
9.53998e-05
8.2174e-05
6.91395e-05
4.67064e-05
2.97967e-05
2.27012e-05
1.84603e-05
1.74449e-05
1.92597e-05
2.36736e-05
3.04309e-05
4.0032e-05
5.12118e-05
5.21448e-05
0.000188466
0.000173922
0.000156329
0.000137725
0.000119085
0.000105264
9.34306e-05
8.17386e-05
5.89235e-05
3.58e-05
1.98203e-05
1.16445e-05
8.98076e-06
1.35712e-05
1.68485e-05
2.23866e-05
2.98594e-05
3.90516e-05
4.8905e-05
5.17651e-05
0.000208316
0.000197042
0.000171323
0.000142214
0.000117096
0.000101706
9.3775e-05
7.41687e-05
4.46813e-05
2.15708e-05
1.12832e-05
8.49072e-06
7.15279e-06
1.04007e-05
1.87373e-05
2.82099e-05
3.53924e-05
4.10282e-05
4.75411e-05
5.13595e-05
0.000226006
0.000217703
0.000181528
0.000141583
0.000111807
9.73076e-05
8.86856e-05
6.47665e-05
3.04167e-05
1.27558e-05
1.08297e-05
1.13664e-05
7.36189e-06
1.03272e-05
2.89868e-05
4.32746e-05
4.53097e-05
4.46366e-05
4.70648e-05
5.09414e-05
0.000239795
0.000233769
0.000185915
0.000136625
0.000104946
9.38297e-05
8.44982e-05
5.59172e-05
2.01044e-05
9.74412e-06
1.17521e-05
9.53909e-06
8.77635e-06
2.25406e-05
5.21738e-05
6.53906e-05
5.7514e-05
4.89982e-05
4.70019e-05
5.02824e-05
0.000248363
0.000244232
0.000185122
0.000129339
9.88413e-05
9.25235e-05
8.40907e-05
5.09497e-05
1.84921e-05
9.46891e-06
9.9888e-06
1.02385e-05
2.62351e-05
5.11418e-05
8.40766e-05
8.82873e-05
6.96702e-05
5.38615e-05
4.75079e-05
4.91739e-05
0.00025119
0.000249552
0.000181241
0.000122074
9.52002e-05
9.31664e-05
8.79068e-05
6.1579e-05
3.51261e-05
2.69406e-05
2.21102e-05
5.29851e-05
8.30111e-05
0.000118579
0.000120357
0.00010866
8.07096e-05
5.86307e-05
4.84127e-05
4.74993e-05
0.000248595
0.000251238
0.000177009
0.000116876
9.46958e-05
9.6156e-05
9.7923e-05
9.5121e-05
7.22878e-05
7.55531e-05
9.19004e-05
0.000121294
0.000154695
0.000155989
0.000149281
0.000125583
9.02296e-05
6.29431e-05
4.93244e-05
4.52302e-05
0.000241428
0.000250617
0.000174797
0.000116165
9.69182e-05
9.97842e-05
0.000109561
0.000118405
0.000128915
0.000144489
0.000162974
0.00017922
0.000188175
0.000187512
0.000171992
0.000137632
9.67953e-05
6.59619e-05
4.97058e-05
4.23429e-05
0.000230599
0.000247645
0.000177916
0.000121879
9.965e-05
0.000100829
0.000113934
0.000130203
0.000147143
0.00016496
0.000183333
0.000199779
0.000209383
0.000203772
0.000177707
0.000134425
9.30851e-05
6.5192e-05
4.88477e-05
3.8804e-05
0.000215886
0.000242878
0.000184334
0.000131915
0.000105385
9.97393e-05
0.000108806
0.000126852
0.000148751
0.000170665
0.000189432
0.000201696
0.000202629
0.000185195
0.000146102
9.80949e-05
6.4964e-05
5.09435e-05
4.46523e-05
3.43892e-05
0.000195496
0.000231012
0.000188036
0.000144253
0.000117326
0.000105586
0.000106503
0.000117449
0.000135364
0.000156663
0.00017645
0.000188476
0.000185751
0.000161048
0.000115679
7.04497e-05
4.5266e-05
3.78647e-05
3.58064e-05
2.87989e-05
0.000165325
0.000201228
0.000179479
0.000152712
0.000133374
0.000121885
0.000118439
0.000122821
0.000134988
0.00015374
0.000176025
0.000195836
0.000203661
0.00018675
0.00014219
9.13681e-05
5.6273e-05
3.93235e-05
3.189e-05
2.62126e-05
0.000117078
0.000119913
0.00012129
0.000124184
0.000127183
0.000130154
0.00013374
0.000138844
0.000146174
0.000155763
0.000166756
0.000176274
0.000175632
0.000144294
0.000103757
7.05716e-05
4.76066e-05
3.36397e-05
2.66496e-05
2.47251e-05
7.23414e-05
7.41717e-05
7.6122e-05
7.77995e-05
7.90502e-05
7.99533e-05
8.06763e-05
8.13678e-05
8.21052e-05
8.28708e-05
8.35372e-05
8.38921e-05
8.36938e-05
8.27569e-05
8.09796e-05
7.82873e-05
7.46468e-05
6.99707e-05
6.39327e-05
5.49148e-05
7.24339e-05
7.46077e-05
7.29611e-05
7.10329e-05
6.89701e-05
6.67927e-05
6.4569e-05
6.24863e-05
6.0803e-05
5.97346e-05
5.93509e-05
5.95227e-05
5.99516e-05
6.02811e-05
6.02844e-05
6.00121e-05
5.98317e-05
6.09441e-05
6.28525e-05
5.39819e-05
8.7555e-05
7.22421e-05
6.74358e-05
6.82934e-05
6.98221e-05
7.01669e-05
6.89699e-05
6.65633e-05
6.35934e-05
6.07463e-05
5.8582e-05
5.7369e-05
5.70287e-05
5.72445e-05
5.76683e-05
5.79673e-05
5.83359e-05
6.00646e-05
6.2731e-05
5.37836e-05
0.000101542
7.29297e-05
6.25123e-05
6.38886e-05
6.95826e-05
7.38025e-05
7.43892e-05
7.18684e-05
6.76619e-05
6.28905e-05
5.85941e-05
5.54973e-05
5.38907e-05
5.37172e-05
5.45119e-05
5.56413e-05
5.7016e-05
5.97231e-05
6.29881e-05
5.40432e-05
0.000115711
7.96447e-05
6.68643e-05
6.9824e-05
7.62221e-05
8.04009e-05
8.09157e-05
7.80086e-05
7.26754e-05
6.62314e-05
6.00738e-05
5.51955e-05
5.22058e-05
5.13629e-05
5.2065e-05
5.35854e-05
5.56169e-05
5.911e-05
6.30271e-05
5.44823e-05
0.000131336
9.20864e-05
7.76639e-05
8.14926e-05
8.66258e-05
8.79608e-05
8.59386e-05
8.16242e-05
7.52956e-05
6.77151e-05
6.06963e-05
5.54266e-05
5.2363e-05
5.11804e-05
5.16402e-05
5.30445e-05
5.50382e-05
5.86083e-05
6.2735e-05
5.49252e-05
0.000149185
0.00011017
9.41029e-05
9.61962e-05
9.6078e-05
9.22467e-05
8.75596e-05
8.25571e-05
7.58373e-05
6.78204e-05
6.02558e-05
5.03315e-05
5.33156e-05
5.39593e-05
5.51669e-05
5.58982e-05
5.65657e-05
5.88395e-05
6.21652e-05
5.52636e-05
0.000169397
0.00013364
0.000114844
0.000110938
0.000101823
9.21208e-05
8.82749e-05
8.29994e-05
7.66843e-05
7.06584e-05
6.62719e-05
5.53557e-05
4.82296e-05
6.06578e-05
6.44665e-05
6.44954e-05
6.16486e-05
6.03504e-05
6.14395e-05
5.54096e-05
0.000191397
0.000161143
0.000136989
0.000122211
0.00010225
8.94616e-05
8.78136e-05
7.86914e-05
6.79541e-05
5.20123e-05
2.66419e-05
2.03649e-05
3.4505e-05
5.58016e-05
7.9475e-05
7.61106e-05
6.77805e-05
6.19584e-05
6.03372e-05
5.52504e-05
0.000213675
0.000189936
0.000156469
0.000127101
9.79923e-05
8.65312e-05
8.52725e-05
6.81145e-05
4.65683e-05
2.17374e-05
1.40226e-05
1.13281e-05
2.38908e-05
6.75823e-05
9.1353e-05
8.78271e-05
7.31789e-05
6.2831e-05
5.881e-05
5.46416e-05
0.000234006
0.000216386
0.000169697
0.000124891
9.17187e-05
8.55458e-05
8.34497e-05
6.09299e-05
2.89127e-05
1.41283e-05
1.65431e-05
3.2048e-05
0.00010692
0.000102827
0.000102246
8.09297e-05
6.35617e-05
5.71269e-05
5.35405e-05
0.000250116
0.000237323
0.000175057
0.000117458
8.63075e-05
8.73897e-05
8.5139e-05
6.39541e-05
2.6221e-05
1.19109e-05
3.73611e-05
0.0239266
9.87516e-05
0.000147338
0.000121698
0.000121898
9.09083e-05
6.57611e-05
5.59535e-05
5.19261e-05
0.00026053
0.000251786
0.000174151
0.000108428
8.43771e-05
9.12296e-05
9.26671e-05
8.10491e-05
5.42374e-05
4.10615e-05
3.75843e-05
0.000102257
0.000163971
0.000165956
0.000152681
0.000146598
0.000103355
6.9578e-05
5.5599e-05
4.98651e-05
0.000265071
0.000261451
0.000171036
0.000101849
8.58587e-05
9.4878e-05
0.000108143
0.000107447
0.000116911
0.000133112
0.000161022
0.00018471
0.000192497
0.000196291
0.000196463
0.000172547
0.000117798
7.50579e-05
5.59752e-05
4.73376e-05
0.000264602
0.000268543
0.000170586
0.000103709
8.69083e-05
9.64349e-05
0.000114542
0.000133714
0.000153164
0.00017394
0.000195151
0.000215615
0.000232635
0.000243334
0.000238365
0.000194748
0.000130627
8.08441e-05
5.66667e-05
4.43364e-05
0.000259914
0.000274153
0.000180137
0.000111618
8.8864e-05
9.4025e-05
0.000112825
0.000137256
0.000163385
0.000190359
0.000218256
0.000245694
0.000269593
0.000281311
0.000263387
0.000203897
0.000134627
8.3279e-05
5.62979e-05
4.0799e-05
0.000249918
0.00027914
0.000196489
0.000129269
9.86885e-05
9.33268e-05
0.000104235
0.000126325
0.000155418
0.000188495
0.000223728
0.000257954
0.000284356
0.000287044
0.000248955
0.000175279
0.000106035
6.81156e-05
5.3364e-05
3.64423e-05
0.000231176
0.000275037
0.000212512
0.000153888
0.000121389
0.000108601
0.000110315
0.000124032
0.000147331
0.000178808
0.000215283
0.000250411
0.000272102
0.000260795
0.000205249
0.000127683
6.92322e-05
4.77998e-05
4.27316e-05
3.03128e-05
0.000196252
0.000245526
0.000213214
0.000175274
0.000150043
0.000136311
0.00013298
0.000138932
0.00015457
0.000179499
0.000211921
0.00024616
0.000269125
0.000257419
0.000203657
0.000136409
8.32042e-05
5.30043e-05
3.78473e-05
2.67284e-05
0.000130424
0.000139071
0.000141556
0.00014435
0.000146867
0.000149442
0.000153074
0.000159106
0.000168683
0.00018223
0.000199101
0.00021622
0.000223408
0.000191551
0.000142735
9.8231e-05
6.57039e-05
4.45117e-05
3.21405e-05
2.64702e-05
6.03483e-05
6.12484e-05
6.34625e-05
6.5904e-05
6.81761e-05
7.01952e-05
7.1945e-05
7.3373e-05
7.43733e-05
7.47888e-05
7.44397e-05
7.32185e-05
7.11107e-05
6.8241e-05
6.48579e-05
6.12809e-05
5.78457e-05
5.4941e-05
5.29088e-05
5.07041e-05
6.78129e-05
6.27008e-05
6.14835e-05
6.16885e-05
6.16212e-05
6.14379e-05
6.12575e-05
6.11738e-05
6.13169e-05
6.16845e-05
6.20892e-05
6.21776e-05
6.16065e-05
6.01915e-05
5.80247e-05
5.55179e-05
5.34507e-05
5.34378e-05
5.56419e-05
5.08066e-05
7.96367e-05
5.12786e-05
4.35468e-05
4.82197e-05
5.42087e-05
5.73799e-05
5.87346e-05
5.94848e-05
6.01003e-05
6.07362e-05
6.13791e-05
6.18476e-05
6.18076e-05
6.0957e-05
5.92342e-05
5.69369e-05
5.48566e-05
5.48677e-05
5.71261e-05
5.10958e-05
8.93369e-05
4.6719e-05
3.41899e-05
3.77831e-05
4.64252e-05
5.33029e-05
5.67981e-05
5.86342e-05
5.97647e-05
6.04035e-05
6.09321e-05
6.14679e-05
6.17557e-05
6.14207e-05
6.02293e-05
5.8321e-05
5.64077e-05
5.6454e-05
5.85041e-05
5.16856e-05
9.91072e-05
4.85911e-05
3.33591e-05
3.78749e-05
4.74142e-05
5.50225e-05
5.89784e-05
6.06897e-05
6.17253e-05
6.19672e-05
6.19361e-05
6.21561e-05
6.24238e-05
6.23121e-05
6.14204e-05
5.97009e-05
5.7793e-05
5.77508e-05
5.96097e-05
5.24302e-05
0.000110264
5.49303e-05
3.6666e-05
4.23772e-05
5.31336e-05
6.11386e-05
6.50662e-05
6.62505e-05
6.57864e-05
6.51948e-05
6.51804e-05
6.53577e-05
6.57109e-05
6.57814e-05
6.46296e-05
6.22889e-05
5.96506e-05
5.89544e-05
6.03488e-05
5.31711e-05
0.000123979
6.54147e-05
4.35595e-05
5.0143e-05
6.10454e-05
6.72744e-05
6.94817e-05
7.11762e-05
6.95196e-05
6.91754e-05
7.98584e-05
7.80754e-05
7.00949e-05
7.88416e-05
7.43266e-05
6.86926e-05
6.3074e-05
6.04145e-05
6.06952e-05
5.3772e-05
0.000140757
8.15048e-05
5.55959e-05
6.24886e-05
7.02522e-05
7.1163e-05
7.28038e-05
7.17667e-05
6.90998e-05
8.94833e-05
8.09511e-05
6.99184e-05
8.80528e-05
9.33809e-05
9.2499e-05
7.93141e-05
6.82281e-05
6.21257e-05
6.06109e-05
5.41035e-05
0.000161073
0.000104077
7.39489e-05
7.9119e-05
7.89586e-05
7.40813e-05
7.34418e-05
6.90016e-05
8.44828e-05
0.00100351
0.00211155
0.000458024
9.48058e-05
9.73401e-05
9.91158e-05
8.70889e-05
7.25644e-05
6.30632e-05
5.98643e-05
5.40318e-05
0.000184442
0.000132982
9.74639e-05
9.55081e-05
8.37124e-05
7.52523e-05
7.52823e-05
5.79176e-05
0.000446968
0.000673219
0.0171408
0.0493603
0.000541738
9.90862e-05
9.46292e-05
9.53662e-05
7.78772e-05
6.36009e-05
5.85777e-05
5.34887e-05
0.000209043
0.000165871
0.000121712
0.000105168
8.31691e-05
7.5889e-05
7.96506e-05
6.57884e-05
0.000989901
0.00102751
2.12619e-05
0.000608342
0.00020065
8.809e-05
0.000102365
0.000117585
8.96804e-05
6.4686e-05
5.71019e-05
5.24748e-05
0.00023204
0.000197728
0.000140027
0.000105846
7.85179e-05
7.80979e-05
8.82332e-05
7.3706e-05
0.000701916
0.000369136
0.000175171
0.000208408
0.00017495
8.30727e-05
0.000134536
0.000151487
0.000109288
6.90571e-05
5.59964e-05
5.10078e-05
0.000250872
0.000224123
0.000148749
9.90205e-05
7.3204e-05
8.19007e-05
0.000100996
0.000105583
9.46639e-05
7.93433e-05
0.000103164
0.000177911
0.000131959
0.000107362
0.000186948
0.000192934
0.000133656
7.74131e-05
5.6225e-05
4.91476e-05
0.00026447
0.000245388
0.000151162
8.98653e-05
7.05312e-05
8.26411e-05
0.000103173
0.000126844
0.000143643
0.00015817
0.0001672
0.000165207
0.000167432
0.000246021
0.000252591
0.000235005
0.00015939
8.87453e-05
5.78936e-05
4.69481e-05
0.000273942
0.000265627
0.000156724
8.68234e-05
6.85423e-05
7.72198e-05
9.54257e-05
0.000113642
0.000130927
0.000149419
0.00017369
0.000210877
0.00026785
0.000306905
0.000314192
0.000270364
0.000181141
0.000100105
6.05156e-05
4.4392e-05
0.000279869
0.000287679
0.000173488
9.84535e-05
6.86961e-05
6.73924e-05
8.25219e-05
0.000105385
0.000132989
0.000165456
0.000205621
0.000257873
0.00031823
0.000355364
0.000353706
0.000288472
0.000190927
0.000106441
6.20231e-05
4.13982e-05
0.000279931
0.000311393
0.00020359
0.000126636
9.44032e-05
8.76431e-05
9.42644e-05
0.000111573
0.00013936
0.000177794
0.0002273
0.000286607
0.0003455
0.000374433
0.000352512
0.000269779
0.000168236
9.19118e-05
5.99714e-05
3.76068e-05
0.000267921
0.00032429
0.000238565
0.000165983
0.000130181
0.000117309
0.000117922
0.000130125
0.000153965
0.000190305
0.000239192
0.0002966
0.000347328
0.000358236
0.000310918
0.000214539
0.000116396
6.08984e-05
4.79532e-05
3.15266e-05
0.000231221
0.000300435
0.000254875
0.000203707
0.000172174
0.000156116
0.000152614
0.000160004
0.000178426
0.000208764
0.000251105
0.00030109
0.000343003
0.000340614
0.000281458
0.000192254
0.000115313
7.12951e-05
4.48404e-05
2.8146e-05
0.000144977
0.000160563
0.000164261
0.000166449
0.000167636
0.000169076
0.000172745
0.00018014
0.000192276
0.000209758
0.000232349
0.000257386
0.000273692
0.000243899
0.000188993
0.000132624
8.8692e-05
5.9185e-05
4.05108e-05
3.02421e-05
5.44756e-05
5.24131e-05
5.37879e-05
5.59179e-05
5.79454e-05
5.97122e-05
6.11264e-05
6.20413e-05
6.22473e-05
6.15802e-05
6.00001e-05
5.76298e-05
5.47119e-05
5.15387e-05
4.8391e-05
4.55403e-05
4.3337e-05
4.24392e-05
4.39621e-05
4.79406e-05
6.24993e-05
4.59135e-05
4.45182e-05
4.89088e-05
5.22885e-05
5.3477e-05
5.39739e-05
5.46975e-05
5.56352e-05
5.64166e-05
5.65786e-05
5.57798e-05
5.39317e-05
5.12193e-05
4.8029e-05
4.49066e-05
4.26628e-05
4.30242e-05
4.68118e-05
4.75463e-05
6.98327e-05
3.29847e-05
2.68544e-05
3.49769e-05
4.65921e-05
5.30244e-05
5.27575e-05
5.1612e-05
5.23781e-05
5.4106e-05
5.56285e-05
5.61975e-05
5.54883e-05
5.35626e-05
5.07542e-05
4.76165e-05