/*--------------------------------*- C++ -*----------------------------------*\
| =========                 |                                                 |
| \\      /  F ield         | OpenFOAM: The Open Source CFD Toolbox           |
|  \\    /   O peration     | Version:                                        |
|   \\  /    A nd           | Website:  www.openfoam.com                      |
|    \\/     M anipulation  |                                                 |
\*---------------------------------------------------------------------------*/
FoamFile
{
    version     2.0;
    format      ascii;
    class       volScalarField;
    location    "900";
    object      nut;
}
// * * * * * * * * * * * * * * * * * * * * * * * * * * * * * * * * * * * * * //

dimensions      [0 2 -1 0 0 0 0];


internalField   nonuniform List<scalar> 
206582
(
0.000186648
0.000174425
0.000172953
0.00017405
0.000175976
0.000178292
0.000180825
0.000183467
0.000185612
0.00018663
0.000187038
0.000187294
0.000187539
0.000187765
0.00018723
0.000186345
0.000184495
0.000180126
0.000175346
0.000170782
0.000185738
8.34539e-06
4.86502e-06
4.45183e-06
4.39349e-06
4.40623e-06
4.43996e-06
4.48262e-06
4.53029e-06
4.75076e-06
5.16351e-06
5.58484e-06
5.95011e-06
6.21509e-06
6.36939e-06
6.45324e-06
6.8596e-06
7.1692e-06
8.68177e-06
0.000169289
0.000185166
8.18254e-06
4.53041e-06
4.06e-06
3.96531e-06
3.94266e-06
3.93772e-06
3.93765e-06
3.93881e-06
3.94019e-06
3.95236e-06
3.98294e-06
4.0211e-06
4.05672e-06
4.0824e-06
4.09724e-06
4.14951e-06
4.21517e-06
5.93078e-06
0.000168886
0.000181856
8.44913e-06
4.61222e-06
4.08917e-06
3.97919e-06
3.95119e-06
3.94375e-06
3.94172e-06
3.94076e-06
3.93952e-06
3.93747e-06
3.93579e-06
3.93538e-06
3.93556e-06
3.93522e-06
3.93368e-06
3.93694e-06
3.98209e-06
5.79497e-06
0.000169112
0.000179466
8.65615e-06
4.6882e-06
4.11938e-06
3.99481e-06
3.96171e-06
3.95225e-06
3.94908e-06
3.94723e-06
3.94497e-06
3.94189e-06
3.9375e-06
3.93255e-06
3.92735e-06
3.92222e-06
3.91757e-06
3.91557e-06
3.9826e-06
5.92061e-06
0.000169741
0.000177898
8.86212e-06
4.76977e-06
4.15198e-06
4.01118e-06
3.97261e-06
3.96099e-06
3.9569e-06
3.9544e-06
3.95153e-06
3.94807e-06
3.94277e-06
3.93631e-06
3.92964e-06
3.92318e-06
3.91757e-06
3.91718e-06
4.01918e-06
6.11688e-06
0.00017068
0.00017684
9.0577e-06
4.85102e-06
4.18826e-06
4.02882e-06
3.98393e-06
3.97005e-06
3.96496e-06
3.96171e-06
3.95854e-06
3.95464e-06
3.94707e-06
3.93909e-06
3.93173e-06
3.92581e-06
3.91995e-06
3.92422e-06
4.07034e-06
6.3692e-06
0.000171896
0.000176064
9.22224e-06
4.92289e-06
4.22254e-06
4.04624e-06
3.99499e-06
3.97886e-06
3.97282e-06
3.96898e-06
3.96569e-06
3.96137e-06
3.94787e-06
3.93391e-06
3.92693e-06
3.92518e-06
3.92178e-06
3.93491e-06
4.13174e-06
6.66994e-06
0.000173362
0.000175402
9.33046e-06
4.97552e-06
4.24939e-06
4.06062e-06
4.00452e-06
3.98663e-06
3.97968e-06
3.97538e-06
3.9723e-06
3.96838e-06
3.95076e-06
3.92291e-06
3.91901e-06
3.92418e-06
3.92459e-06
3.94883e-06
4.19618e-06
6.98808e-06
0.000175037
0.000174734
9.35883e-06
5.0002e-06
4.2644e-06
4.06962e-06
4.01126e-06
3.9922e-06
3.98457e-06
3.97967e-06
3.97627e-06
3.97378e-06
3.95337e-06
3.9313e-06
3.92568e-06
3.92686e-06
3.92872e-06
3.96342e-06
4.25863e-06
7.27098e-06
0.000176909
0.000173976
9.28898e-06
4.99085e-06
4.26528e-06
4.07241e-06
4.01412e-06
3.99487e-06
3.98681e-06
3.98073e-06
3.97587e-06
3.97148e-06
3.95843e-06
3.94589e-06
3.93783e-06
3.93178e-06
3.93194e-06
3.97336e-06
4.29925e-06
7.44997e-06
0.00017899
0.000173073
9.11011e-06
4.94523e-06
4.25182e-06
4.06901e-06
4.01333e-06
3.99456e-06
3.98678e-06
3.97931e-06
3.97213e-06
3.96585e-06
3.9565e-06
3.94732e-06
3.9392e-06
3.9319e-06
3.9315e-06
3.97305e-06
4.29655e-06
7.47174e-06
0.000181243
0.000171988
8.8206e-06
4.86515e-06
4.22592e-06
4.06055e-06
4.00962e-06
3.99244e-06
3.98505e-06
3.97745e-06
3.9698e-06
3.96174e-06
3.95201e-06
3.9431e-06
3.93441e-06
3.92624e-06
3.92538e-06
3.96164e-06
4.25559e-06
7.30185e-06
0.000183454
0.000170707
8.42787e-06
4.7567e-06
4.19156e-06
4.04961e-06
4.00602e-06
3.99156e-06
3.98569e-06
3.97928e-06
3.97234e-06
3.96206e-06
3.94923e-06
3.93862e-06
3.92835e-06
3.91786e-06
3.91459e-06
3.94291e-06
4.19035e-06
7.00612e-06
0.000184827
0.000169209
7.94999e-06
4.63229e-06
4.15751e-06
4.04449e-06
4.01126e-06
4.00311e-06
4.00127e-06
3.99821e-06
3.9921e-06
3.97675e-06
3.95621e-06
3.93814e-06
3.92101e-06
3.89618e-06
3.87389e-06
3.89842e-06
4.10587e-06
6.64399e-06
0.000184364
0.000167464
7.43139e-06
4.52164e-06
4.15062e-06
4.07458e-06
4.05882e-06
4.06362e-06
4.07204e-06
4.07435e-06
4.06972e-06
4.04488e-06
4.0056e-06
3.96543e-06
3.92846e-06
3.88853e-06
3.8568e-06
3.85975e-06
4.0088e-06
6.16658e-06
0.000183441
0.00016543
6.98942e-06
4.5231e-06
4.27606e-06
4.25838e-06
4.27981e-06
4.30782e-06
4.32965e-06
4.33921e-06
4.33864e-06
4.29842e-06
4.22507e-06
4.13199e-06
4.0447e-06
3.97168e-06
3.9138e-06
3.88392e-06
3.96141e-06
5.65828e-06
0.000183857
0.000163044
7.08757e-06
5.09086e-06
5.02555e-06
5.11761e-06
5.2115e-06
5.28216e-06
5.3238e-06
5.33025e-06
5.29983e-06
5.23408e-06
5.11906e-06
4.93417e-06
4.72363e-06
4.52335e-06
4.33917e-06
4.18468e-06
4.12483e-06
5.32652e-06
0.00018362
0.000160305
1.076e-05
9.35122e-06
9.60799e-06
9.84233e-06
9.96817e-06
1.00094e-05
1.0001e-05
9.95852e-06
9.89488e-06
9.81938e-06
9.70966e-06
9.47782e-06
9.20652e-06
8.85178e-06
8.35364e-06
7.71796e-06
7.08071e-06
7.56198e-06
0.000179397
0.000157857
0.000161269
0.000160582
0.000158286
0.000155357
0.000152478
0.000149922
0.000147815
0.000146257
0.000145305
0.000144929
0.000144972
0.000145113
0.000146242
0.000149013
0.000153393
0.000158834
0.000164676
0.000170693
0.000177266
0.000100891
8.95516e-05
8.46105e-05
8.14774e-05
7.86872e-05
7.58709e-05
7.30549e-05
7.04227e-05
6.94318e-05
6.9804e-05
7.10339e-05
7.29416e-05
7.53953e-05
7.82596e-05
8.28129e-05
8.6624e-05
8.67438e-05
8.47674e-05
7.92114e-05
6.98094e-05
9.04112e-05
1.99096e-05
1.03761e-05
6.42068e-06
4.13223e-06
2.69226e-06
1.79987e-06
1.27833e-06
9.98873e-07
8.7967e-07
8.70859e-07
9.43004e-07
1.08472e-06
1.28997e-06
1.55058e-06
2.25196e-06
4.7781e-06
1.28358e-05
2.29737e-05
6.18252e-05
7.97291e-05
3.49356e-05
2.08904e-05
1.27584e-05
7.59886e-06
4.33046e-06
2.37902e-06
1.32286e-06
8.07521e-07
5.76641e-07
4.82362e-07
4.52471e-07
4.56777e-07
4.8412e-07
5.29255e-07
6.31462e-07
8.494e-07
2.69822e-06
9.133e-06
5.82574e-05
7.91391e-05
5.20155e-05
3.96122e-05
2.60003e-05
1.53623e-05
8.3088e-06
4.15478e-06
2.00728e-06
1.03986e-06
6.51007e-07
5.08182e-07
4.6018e-07
4.47502e-07
4.53432e-07
4.80728e-07
5.32369e-07
5.25114e-07
1.00817e-06
4.85809e-06
5.70829e-05
8.02458e-05
5.70692e-05
5.02234e-05
4.3274e-05
2.76745e-05
1.4524e-05
6.75363e-06
2.94357e-06
1.35166e-06
7.70602e-07
5.80447e-07
5.21446e-07
4.97462e-07
4.91128e-07
5.02848e-07
5.3334e-07
4.69425e-07
6.01896e-07
3.335e-06
5.7153e-05
8.18795e-05
6.21758e-05
5.58287e-05
4.96676e-05
4.03024e-05
2.12191e-05
9.24276e-06
3.71036e-06
1.58508e-06
8.84559e-07
6.87094e-07
6.33851e-07
5.973e-07
5.73027e-07
5.60605e-07
5.64535e-07
4.60619e-07
4.5299e-07
2.77815e-06
5.8065e-05
8.3588e-05
6.71976e-05
6.10089e-05
5.41908e-05
4.69114e-05
2.55374e-05
1.05146e-05
3.9485e-06
1.64206e-06
9.72935e-07
8.35633e-07
8.13827e-07
7.57197e-07
6.93115e-07
6.41272e-07
6.0503e-07
4.56327e-07
3.72838e-07
2.68687e-06
5.97253e-05
8.50881e-05
7.18683e-05
6.55113e-05
5.77235e-05
4.97512e-05
2.67655e-05
1.04707e-05
3.73804e-06
1.57758e-06
1.0555e-06
1.03189e-06
1.06326e-06
9.84263e-07
8.35227e-07
7.1529e-07
6.19216e-07
4.23751e-07
3.18965e-07
3.37848e-06
6.15595e-05
8.61728e-05
7.59393e-05
6.90705e-05
6.00937e-05
5.12612e-05
2.62587e-05
9.86916e-06
3.41521e-06
1.49568e-06
1.13629e-06
1.22736e-06
1.28484e-06
1.1745e-06
8.37503e-07
6.84864e-07
5.65116e-07
3.61366e-07
4.99387e-07
5.55166e-06
6.32313e-05
8.67e-05
7.92289e-05
7.15194e-05
6.12411e-05
5.16531e-05
2.52867e-05
9.39496e-06
3.21748e-06
1.43004e-06
1.18342e-06
1.33261e-06
1.26316e-06
1.02053e-06
7.88979e-07
6.16629e-07
4.82519e-07
3.12617e-07
1.19458e-06
8.62849e-06
6.49548e-05
8.65925e-05
8.16552e-05
7.28468e-05
6.12719e-05
5.03756e-05
2.46199e-05
9.37658e-06
3.22057e-06
1.36204e-06
1.16846e-06
1.2722e-06
1.12447e-06
9.06765e-07
7.24647e-07
5.55562e-07
4.13776e-07
3.02792e-07
1.27574e-06
1.20974e-05
6.68594e-05
8.58394e-05
8.32446e-05
7.32002e-05
6.04442e-05
4.84208e-05
2.46535e-05
9.92141e-06
3.45096e-06
1.27996e-06
1.08398e-06
1.12301e-06
9.75396e-07
7.81982e-07
6.30315e-07
5.02057e-07
3.74955e-07
3.23074e-07
1.15359e-06
1.56584e-05
6.9019e-05
8.44852e-05
8.4102e-05
7.28431e-05
5.91173e-05
4.71053e-05
2.57835e-05
1.11987e-05
3.96811e-06
1.2207e-06
9.72378e-07
9.5593e-07
8.09972e-07
6.26551e-07
4.83673e-07
3.87381e-07
3.29064e-07
3.68663e-07
1.25535e-06
1.13986e-05
7.14605e-05
8.26109e-05
8.4348e-05
7.20847e-05
5.76811e-05
4.69952e-05
2.88867e-05
1.3759e-05
4.98299e-06
1.40778e-06
9.37112e-07
8.29536e-07
7.00452e-07
5.61777e-07
4.57274e-07
3.6898e-07
3.50605e-07
5.39629e-07
1.77891e-06
1.07772e-05
7.39403e-05
8.03057e-05
8.40231e-05
7.11962e-05
5.6512e-05
4.63587e-05
3.51505e-05
1.96248e-05
7.59116e-06
2.58034e-06
1.2693e-06
8.98602e-07
8.09271e-07
9.09237e-07
1.3738e-06
2.99477e-06
3.55908e-06
3.04898e-06
6.0127e-06
1.95855e-05
7.59912e-05
7.76455e-05
8.29407e-05
7.03055e-05
5.59312e-05
4.62886e-05
4.00315e-05
3.40801e-05
1.71016e-05
7.54714e-06
3.38975e-06
1.77026e-06
1.42103e-06
1.62035e-06
2.32852e-06
3.8571e-06
5.15714e-06
5.57048e-06
1.05173e-05
2.56845e-05
7.68771e-05
7.46552e-05
8.04558e-05
6.9233e-05
5.61638e-05
4.7439e-05
4.19415e-05
3.85301e-05
3.54039e-05
3.03401e-05
2.07782e-05
9.64627e-06
6.10272e-06
5.19458e-06
5.91536e-06
7.21884e-06
6.18161e-06
6.69924e-06
1.13508e-05
2.54451e-05
7.62797e-05
7.1247e-05
7.55207e-05
6.71138e-05
5.71659e-05
4.99343e-05
4.50839e-05
4.23954e-05
4.12733e-05
4.08118e-05
4.00183e-05
3.81723e-05
3.49801e-05
3.02128e-05
2.36613e-05
1.65485e-05
1.20897e-05
1.10105e-05
1.33146e-05
2.3248e-05
7.13114e-05
6.72945e-05
6.71354e-05
6.29698e-05
5.75302e-05
5.31455e-05
4.98909e-05
4.80477e-05
4.76995e-05
4.87261e-05
5.06865e-05
5.27839e-05
5.37514e-05
5.18648e-05
4.47498e-05
3.32413e-05
2.50195e-05
2.18592e-05
2.1816e-05
2.62806e-05
6.53683e-05
6.26684e-05
6.29631e-05
6.29094e-05
6.28061e-05
6.27236e-05
6.27683e-05
6.30488e-05
6.36473e-05
6.45868e-05
6.5773e-05
6.69559e-05
6.76218e-05
6.68946e-05
6.15135e-05
5.41692e-05
4.97861e-05
4.90775e-05
5.12939e-05
5.52476e-05
5.99232e-05
7.28166e-05
6.80788e-05
6.56316e-05
6.38206e-05
6.20905e-05
6.0328e-05
5.85965e-05
5.7028e-05
5.58635e-05
5.5266e-05
5.52436e-05
5.57884e-05
5.68669e-05
5.84454e-05
6.04663e-05
6.23602e-05
6.28197e-05
6.04681e-05
5.58179e-05
4.91087e-05
6.04559e-05
4.73626e-05
4.07884e-05
3.47388e-05
2.90671e-05
2.39749e-05
1.95487e-05
1.58548e-05
1.29646e-05
1.09239e-05
9.72352e-06
9.29601e-06
9.50827e-06
1.01631e-05
1.10515e-05
1.22314e-05
1.553e-05
2.26175e-05
3.22034e-05
4.14943e-05
5.7724e-05
6.72926e-05
6.69487e-05
6.10454e-05
5.19392e-05
4.18153e-05
3.20855e-05
2.36033e-05
1.68117e-05
1.18071e-05
8.47078e-06
6.5269e-06
5.62861e-06
5.46423e-06
5.79178e-06
6.49078e-06
8.8035e-06
1.45091e-05
2.41629e-05
3.79521e-05
6.18298e-05
7.3529e-05
7.9906e-05
8.04246e-05
7.38031e-05
6.14074e-05
4.64485e-05
3.2382e-05
2.11721e-05
1.31996e-05
8.09784e-06
5.18616e-06
3.7098e-06
3.10414e-06
3.04219e-06
3.48235e-06
5.40513e-06
1.06077e-05
2.01845e-05
3.63078e-05
6.59895e-05
7.91379e-05
8.60591e-05
8.87495e-05
8.67774e-05
7.59286e-05
5.75135e-05
3.82514e-05
2.30745e-05
1.2895e-05
6.95882e-06
3.91184e-06
2.46603e-06
1.82429e-06
1.62085e-06
1.97833e-06
3.48319e-06
8.13351e-06
1.7603e-05
3.55786e-05
6.99993e-05
8.58507e-05
9.29949e-05
9.45442e-05
9.22053e-05
8.32433e-05
6.22068e-05
3.87414e-05
2.11232e-05
1.02431e-05
4.777e-06
2.43091e-06
1.45682e-06
1.0054e-06
9.26119e-07
1.22047e-06
2.38829e-06
6.54707e-06
1.58852e-05
3.53978e-05
7.37682e-05
9.34222e-05
0.000100308
9.95793e-05
9.51737e-05
8.53901e-05
6.08514e-05
3.43736e-05
1.64951e-05
6.45515e-06
2.54263e-06
1.25958e-06
7.8669e-07
5.91062e-07
5.90946e-07
8.34935e-07
1.78218e-06
5.68013e-06
1.53424e-05
3.5653e-05
7.71427e-05
0.000101415
0.000107194
0.000103044
9.58013e-05
8.39074e-05
5.52345e-05
2.76979e-05
1.24095e-05
2.63813e-06
9.92501e-07
6.94056e-07
5.54615e-07
4.64172e-07
4.65623e-07
6.67188e-07
1.54935e-06
5.74336e-06
1.60701e-05
3.62383e-05
7.99363e-05
0.000109352
0.000112871
0.000104271
9.39363e-05
7.9629e-05
4.77251e-05
2.35371e-05
4.8603e-06
1.30913e-06
9.16761e-07
9.40595e-07
8.39134e-07
4.35282e-07
4.16781e-07
6.18003e-07
1.71171e-06
7.54627e-06
1.82068e-05
3.70094e-05
8.19762e-05
0.00011683
0.000116789
0.000103023
8.9788e-05
7.38322e-05
4.06591e-05
1.65345e-05
2.85116e-06
1.02588e-06
1.03201e-06
1.01517e-06
7.88732e-07
4.90296e-07
4.70767e-07
8.6749e-07
3.30791e-06
1.13639e-05
2.14977e-05
3.78343e-05
8.31457e-05
0.000123636
0.000118793
9.95976e-05
8.40357e-05
6.79097e-05
3.59033e-05
1.17132e-05
1.94032e-06
9.21228e-07
1.01327e-06
8.61637e-07
6.41902e-07
5.23212e-07
8.48306e-07
2.34906e-06
8.43622e-06
1.72153e-05
2.49902e-05
3.83998e-05
8.3414e-05
0.000129813
0.000119155
9.47432e-05
7.75926e-05
6.28673e-05
3.39741e-05
9.12247e-06
1.64337e-06
8.6751e-07
9.12406e-07
8.09607e-07
7.23992e-07
1.32256e-06
3.09031e-06
8.8298e-06
1.83193e-05
2.41704e-05
2.86027e-05
3.86746e-05
8.28346e-05
0.000135621
0.000118446
8.94005e-05
7.13307e-05
5.92074e-05
3.46573e-05
1.12682e-05
2.55258e-06
1.16922e-06
1.33791e-06
2.07476e-06
7.02626e-06
9.54643e-06
1.45521e-05
2.57975e-05
3.1865e-05
3.12188e-05
3.15695e-05
3.87087e-05
8.15195e-05
0.000141326
0.000117313
8.45018e-05
6.59974e-05
5.69337e-05
3.81882e-05
1.9056e-05
1.10671e-05
4.30826e-06
6.00696e-06
2.21024e-05
3.37617e-05
4.51119e-05
5.19122e-05
5.22325e-05
4.58796e-05
3.76993e-05
3.36359e-05
3.85392e-05
7.96004e-05
0.00014675
0.000116306
8.08601e-05
6.2162e-05
5.57126e-05
4.75937e-05
3.41987e-05
2.59861e-05
2.60795e-05
3.25847e-05
4.5585e-05
6.21475e-05
7.64624e-05
8.22509e-05
7.42592e-05
5.81438e-05
4.32127e-05
3.47163e-05
3.81637e-05
7.71932e-05
0.000150388
0.000115649
7.94644e-05
6.1047e-05
5.50092e-05
5.45988e-05
5.22983e-05
4.80452e-05
4.6822e-05
5.06506e-05
6.03967e-05
7.3612e-05
8.54751e-05
8.77193e-05
7.58445e-05
5.91768e-05
4.48043e-05
3.48052e-05
3.87415e-05
7.43736e-05
0.000148467
0.00011578
8.1461e-05
6.20251e-05
5.40621e-05
5.38356e-05
5.8005e-05
6.36713e-05
6.86949e-05
7.23211e-05
7.7779e-05
8.37506e-05
8.47729e-05
7.66756e-05
5.96047e-05
4.54705e-05
3.83249e-05
3.44614e-05
3.59129e-05
7.08572e-05
0.00013945
0.000113628
8.46242e-05
6.58873e-05
5.59214e-05
5.28231e-05
5.48474e-05
6.04386e-05
6.81831e-05
7.6826e-05
8.53593e-05
9.25078e-05
9.43714e-05
8.10763e-05
5.63812e-05
3.96422e-05
3.3492e-05
3.21208e-05
3.28963e-05
6.59323e-05
0.000114889
0.000101645
8.43327e-05
7.1266e-05
6.25975e-05
5.82583e-05
5.80792e-05
6.20617e-05
7.02119e-05
8.25415e-05
9.88095e-05
0.000117205
0.000128564
0.000110805
7.39112e-05
4.72808e-05
3.56162e-05
3.1507e-05
3.04217e-05
5.81157e-05
5.87655e-05
5.93672e-05
6.01911e-05
6.10747e-05
6.20069e-05
6.31114e-05
6.45353e-05
6.63523e-05
6.84926e-05
7.07153e-05
7.25013e-05
7.30205e-05
6.83533e-05
5.89331e-05
4.92186e-05
4.02879e-05
3.33847e-05
2.9643e-05
2.88743e-05
5.85275e-05
5.73552e-05
5.66583e-05
5.60009e-05
5.52371e-05
5.43764e-05
5.34968e-05
5.27024e-05
5.21062e-05
5.18014e-05
5.18207e-05
5.21471e-05
5.27183e-05
5.34453e-05
5.42153e-05
5.48154e-05
5.46302e-05
5.29329e-05
4.93863e-05
4.33122e-05
5.02783e-05
5.55609e-05
5.57084e-05
5.3465e-05
4.98976e-05
4.56591e-05
4.12599e-05
3.71516e-05
3.37305e-05
3.12939e-05
3.00008e-05
2.98385e-05
3.06006e-05
3.19062e-05
3.3318e-05
3.46484e-05
3.69813e-05
4.11984e-05
4.63168e-05
4.07864e-05
5.30491e-05
6.01908e-05
6.51047e-05
6.7752e-05
6.70562e-05
6.29645e-05
5.6467e-05
4.89044e-05
4.15262e-05
3.52438e-05
3.06279e-05
2.79011e-05
2.69463e-05
2.73823e-05
2.87038e-05
3.05729e-05
3.38414e-05
3.91911e-05
4.57428e-05
3.98514e-05
5.76534e-05
6.1739e-05
6.66356e-05
7.25104e-05
7.54304e-05
7.35012e-05
6.70541e-05
5.76252e-05
4.73234e-05
3.78193e-05
3.02753e-05
2.52242e-05
2.25733e-05
2.19082e-05
2.2761e-05
2.51266e-05
2.98184e-05
3.72062e-05
4.56766e-05
3.95481e-05
6.19857e-05
6.56779e-05
7.0566e-05
7.64662e-05
7.96919e-05
7.86577e-05
7.23226e-05
6.16607e-05
4.93371e-05
3.74771e-05
2.80108e-05
2.17407e-05
1.83069e-05
1.70065e-05
1.74291e-05
2.01793e-05
2.58008e-05
3.49008e-05
4.54361e-05
3.94711e-05
6.6277e-05
7.19555e-05
7.70488e-05
8.17614e-05
8.2783e-05
8.01621e-05
7.26713e-05
6.03486e-05
4.63986e-05
3.25486e-05
2.21969e-05
1.60545e-05
1.32389e-05
1.19568e-05
1.28037e-05
1.59782e-05
2.22957e-05
3.27217e-05
4.50489e-05
3.94525e-05
7.05786e-05
8.01705e-05
8.50286e-05
8.67663e-05
8.39743e-05
7.88376e-05
6.92276e-05
5.47456e-05
4.11801e-05
2.13313e-05
1.03087e-05
7.45767e-06
5.94273e-06
6.14324e-06
8.04239e-06
1.20906e-05
1.93502e-05
3.10232e-05
4.42858e-05
3.93908e-05
7.47754e-05
8.97312e-05
9.3202e-05
9.00008e-05
8.24428e-05
7.49455e-05
6.31716e-05
4.96842e-05
2.8048e-05
1.2614e-05
4.94829e-06
1.84527e-06
1.27164e-06
3.46271e-06
5.87974e-06
1.06426e-05
1.89959e-05
3.13327e-05
4.40318e-05
3.93026e-05
7.86421e-05
9.99013e-05
0.000100232
9.04256e-05
7.80892e-05
6.92672e-05
5.98699e-05
3.8881e-05
1.66138e-05
4.75622e-06
1.46596e-06
8.73913e-07
7.59664e-07
1.9555e-06
6.96524e-06
1.53346e-05
2.54039e-05
3.56794e-05
4.53463e-05
3.92409e-05
8.19035e-05
0.000109919
0.000105052
8.77226e-05
7.15657e-05
6.31348e-05
5.17299e-05
2.96022e-05
8.35707e-06
1.67345e-06
9.34361e-07
8.95425e-07
7.51624e-07
1.90778e-06
1.30534e-05
2.72222e-05
3.66536e-05
4.26136e-05
4.78345e-05
3.91947e-05
8.4319e-05
0.000119212
0.000107201
8.24325e-05
6.40994e-05
5.78265e-05
4.51035e-05
2.21568e-05
4.16081e-06
9.08607e-07
8.86027e-07
7.55902e-07
9.68957e-07
6.94318e-06
2.71878e-05
4.48075e-05
5.01934e-05
5.02668e-05
5.05867e-05
3.90312e-05
8.57561e-05
0.000127608
0.000106959
7.57492e-05
5.7289e-05
5.40193e-05
4.21004e-05
1.7513e-05
3.56664e-06
8.9815e-07
8.73678e-07
1.10409e-06
7.14695e-06
2.07195e-05
4.74281e-05
6.40157e-05
6.42275e-05
5.80947e-05
5.31848e-05
3.86352e-05
8.62213e-05
0.000135404
0.000105259
6.90855e-05
5.21499e-05
5.14074e-05
4.36851e-05
2.12946e-05
9.42183e-06
6.13608e-06
3.89004e-06
1.67742e-05
3.36738e-05
6.09892e-05
7.29214e-05
8.44476e-05
7.84627e-05
6.56186e-05
5.51972e-05
3.79492e-05
8.58297e-05
0.000143092
0.000103374
6.35604e-05
4.91197e-05
5.01784e-05
4.87704e-05
4.23364e-05
2.59388e-05
2.84637e-05
3.54779e-05
5.125e-05
7.82631e-05
8.89582e-05
0.000101076
0.000107422
9.33505e-05
7.2818e-05
5.66622e-05
3.69272e-05
8.47308e-05
0.000150552
0.000102534
6.08967e-05
4.78257e-05
4.93336e-05
5.42364e-05
5.65801e-05
5.94155e-05
6.63283e-05
7.72324e-05
9.09454e-05
0.000105438
0.000118426
0.000133668
0.000132439
0.000108006
7.92448e-05
5.7413e-05
3.54917e-05
8.30423e-05
0.00015572
0.000105234
6.2725e-05
4.67538e-05
4.66624e-05
5.35616e-05
6.19431e-05
7.03947e-05
8.01821e-05
9.28379e-05
0.0001088
0.000126538
0.000146414
0.000160655
0.000147781
0.000114007
8.17699e-05
5.65573e-05
3.35515e-05
8.07275e-05
0.00015907
0.000111479
6.85966e-05
4.82718e-05
4.27509e-05
4.61321e-05
5.48959e-05
6.66761e-05
8.01066e-05
9.47859e-05
0.000111135
0.000130224
0.000150112
0.000152881
0.000126101
9.0255e-05
6.73404e-05
5.09909e-05
3.08232e-05
7.73128e-05
0.000155985
0.000117785
7.90918e-05
5.66932e-05
4.64133e-05
4.4424e-05
4.84168e-05
5.70107e-05
6.94736e-05
8.52708e-05
0.000104213
0.000126094
0.000144953
0.000139404
0.000105798
6.91972e-05
5.16208e-05
4.15673e-05
2.73322e-05
7.17325e-05
0.000133329
0.000113564
8.87897e-05
7.09804e-05
5.98339e-05
5.45198e-05
5.43029e-05
5.92019e-05
6.9544e-05
8.60676e-05
0.000109904
0.000141617
0.000172623
0.000169758
0.000124721
7.61765e-05
5.04045e-05
3.76281e-05
2.75764e-05
6.16509e-05
6.33812e-05
6.41133e-05
6.48741e-05
6.56718e-05
6.65676e-05
6.7741e-05
6.94003e-05
7.16571e-05
7.44518e-05
7.75353e-05
8.03814e-05
8.20858e-05
7.8203e-05
6.88458e-05
5.83058e-05
4.8208e-05
3.92147e-05
3.21624e-05
2.82586e-05
4.95067e-05
4.99841e-05
5.03303e-05
5.05098e-05
5.05272e-05
5.04323e-05
5.02988e-05
5.01996e-05
5.01908e-05
5.03002e-05
5.05153e-05
5.07861e-05
5.10341e-05
5.11738e-05
5.11319e-05
5.07099e-05
4.97775e-05
4.81082e-05
4.53813e-05
4.09203e-05
4.58361e-05
5.2487e-05
5.52087e-05
5.60302e-05
5.53453e-05
5.36392e-05
5.14294e-05
4.92049e-05
4.73848e-05
4.62612e-05
4.59515e-05
4.63769e-05
4.72764e-05
4.82819e-05
4.90566e-05
4.94341e-05
4.97434e-05
5.07896e-05
5.19734e-05
4.04642e-05
4.99948e-05
4.79963e-05
5.05733e-05
5.55394e-05
5.95943e-05
6.12704e-05
6.04411e-05
5.78181e-05
5.44516e-05
5.12945e-05
4.90338e-05
4.79915e-05
4.8093e-05
4.89691e-05
5.01492e-05
5.12107e-05
5.22336e-05
5.39319e-05
5.5392e-05
4.03863e-05
5.39083e-05
4.50193e-05
4.41261e-05
4.9721e-05
5.75991e-05
6.33776e-05
6.50747e-05
6.30752e-05
5.89215e-05
5.40883e-05
4.98652e-05
4.71198e-05
4.61282e-05
4.67083e-05
4.83879e-05
5.04747e-05
5.27934e-05
5.57855e-05
5.78726e-05
4.04997e-05
5.75611e-05
4.58617e-05
4.41966e-05
5.09923e-05
5.94256e-05
6.5487e-05
6.76799e-05
6.59176e-05
6.11969e-05
5.51678e-05
4.94855e-05
4.54234e-05
4.34336e-05
4.37951e-05
4.58933e-05
4.89054e-05
5.24325e-05
5.67328e-05
5.96752e-05
4.06839e-05
6.13419e-05
4.98802e-05
4.83419e-05
5.60477e-05
6.37308e-05
6.77851e-05
6.8023e-05
6.4944e-05
5.91499e-05
5.21534e-05
4.59096e-05
4.16235e-05
3.99195e-05
4.07485e-05
4.36464e-05
4.76665e-05
5.22308e-05
5.75115e-05
6.10777e-05
4.08707e-05
6.5439e-05
5.66495e-05
5.54959e-05
6.25845e-05
6.69883e-05
6.72358e-05
6.46919e-05
6.07771e-05
5.26385e-05
4.40294e-05
3.69346e-05
2.94731e-05
3.34273e-05
3.67464e-05
4.2016e-05
4.75865e-05
5.30398e-05
5.87601e-05
6.23223e-05
4.10188e-05
6.983e-05
6.5892e-05
6.46873e-05
6.87173e-05
6.74545e-05
6.33098e-05
6.09817e-05
5.32559e-05
4.36753e-05
3.35588e-05
2.72807e-05
2.2306e-05
2.17122e-05
3.38212e-05
4.32235e-05
5.16434e-05
5.70275e-05
6.14554e-05
6.37429e-05
4.10972e-05
7.43495e-05
7.70644e-05
7.44296e-05
7.25335e-05
6.43466e-05
5.76334e-05
5.5149e-05
4.32017e-05
3.14795e-05
1.74989e-05
6.79167e-06
4.72423e-06
1.04127e-05
2.54233e-05
4.54203e-05
5.63409e-05
6.16789e-05
6.44011e-05
6.49077e-05
4.1056e-05
7.86742e-05
8.92959e-05
8.28826e-05
7.25766e-05
5.83714e-05
5.20614e-05
4.88719e-05
3.32122e-05
1.59399e-05
4.16043e-06
1.60723e-06
1.34183e-06
5.38769e-06
2.61577e-05
4.22464e-05
6.07458e-05
6.69627e-05
6.72064e-05
6.56124e-05
4.08402e-05
8.24127e-05
0.000101551
8.85027e-05
6.86311e-05
5.13749e-05
4.80439e-05
4.45939e-05
2.68575e-05
8.10387e-06
1.7986e-06
4.98693e-07
6.94853e-06
4.10858e-05
4.32598e-05
6.92551e-05
7.51028e-05
7.04612e-05
6.60516e-05
4.04341e-05
8.52536e-05
0.000113026
9.05962e-05
6.17443e-05
4.50245e-05
4.57179e-05
4.31125e-05
2.65835e-05
5.61535e-06
1.11122e-06
4.85084e-07
5.94368e-05
3.45468e-05
5.42818e-05
5.3063e-05
8.52944e-05
8.7235e-05
7.50029e-05
6.66129e-05
3.98091e-05
8.70851e-05
0.000123653
8.98763e-05
5.40037e-05
4.0741e-05
4.41088e-05
4.40345e-05
3.56184e-05
2.07958e-05
1.29069e-05
8.76432e-06
4.15268e-05
5.98014e-05
6.04315e-05
7.60778e-05
0.000110867
0.000104617
8.16191e-05
6.70211e-05
3.89924e-05
8.79944e-05
0.000134116
8.79226e-05
4.77653e-05
3.83065e-05
4.246e-05
4.72456e-05
4.67122e-05
5.0899e-05
5.75118e-05
6.51043e-05
6.79247e-05
6.63466e-05
7.35128e-05
0.000114738
0.000145241
0.000127211
9.08603e-05
6.76654e-05
3.79045e-05
8.8157e-05
0.00014484
8.73861e-05
4.64658e-05
3.57415e-05
3.93468e-05
4.64198e-05
5.28661e-05
5.83461e-05
6.37761e-05
6.93525e-05
7.57757e-05
8.55934e-05
0.000111328
0.000163689
0.000183757
0.000151273
0.000101565
6.85819e-05
3.64979e-05
8.77029e-05
0.000154798
9.32053e-05
4.8526e-05
3.42068e-05
3.47065e-05
4.13746e-05
5.01585e-05
5.92438e-05
6.87078e-05
7.92105e-05
9.18216e-05
0.000112332
0.000156522
0.000209259
0.000213166
0.000166407
0.000108564
6.83876e-05
3.46529e-05
8.64154e-05
0.000165851
0.000105414
5.74262e-05
3.70205e-05
3.15581e-05
3.36646e-05
4.03727e-05
5.01906e-05
6.26748e-05
7.87557e-05
0.000100689
0.000134706
0.000187599
0.000223562
0.000203188
0.000144515
9.30605e-05
6.32097e-05
3.20279e-05
8.36305e-05
0.000171655
0.000121695
7.51997e-05
5.06075e-05
3.99291e-05
3.74003e-05
4.05857e-05
4.81648e-05
6.04696e-05
7.86612e-05
0.000105308
0.000144718
0.000193171
0.000206267
0.000167903
0.000107063
6.65269e-05
4.93751e-05
2.80133e-05
7.77767e-05
0.000154062
0.000127985
9.58402e-05
7.36865e-05
6.03198e-05
5.39584e-05
5.29507e-05
5.72375e-05
6.72902e-05
8.47721e-05
0.000112902
0.000155536
0.000202576
0.000212045
0.000174952
0.000112187
6.68045e-05
4.3873e-05
2.83508e-05
6.53334e-05
6.8112e-05
6.89101e-05
6.94934e-05
7.0064e-05
7.08023e-05
7.19367e-05
7.37477e-05
7.6391e-05
7.98333e-05
8.38318e-05
8.78044e-05
9.09155e-05
8.7836e-05
7.89718e-05
6.76506e-05
5.63357e-05
4.61756e-05
3.72763e-05
3.083e-05
4.36255e-05
4.44331e-05
4.53119e-05
4.60926e-05
4.67221e-05
4.72345e-05
4.76765e-05
4.80785e-05
4.84415e-05
4.87364e-05
4.88997e-05
4.88944e-05
4.86664e-05
4.81763e-05
4.74123e-05
4.63793e-05
4.50934e-05
4.35481e-05
4.16555e-05
3.90022e-05
4.34546e-05
4.49102e-05
4.80031e-05
5.0847e-05
5.22378e-05
5.2515e-05
5.22171e-05
5.17789e-05
5.15312e-05
5.16283e-05
5.20157e-05
5.25003e-05
5.28056e-05
5.2693e-05
5.20702e-05
5.10629e-05
5.01083e-05
5.01139e-05
5.05467e-05
3.94302e-05
4.71625e-05
3.43809e-05
3.31446e-05
3.99095e-05
4.74221e-05
5.20503e-05
5.41986e-05
5.49612e-05
5.51138e-05
5.5162e-05
5.54039e-05
5.58675e-05
5.63423e-05
5.65255e-05
5.62086e-05
5.54226e-05
5.45896e-05
5.47531e-05
5.50544e-05
3.96944e-05
4.99307e-05
2.85293e-05
2.4109e-05
2.94863e-05
3.86184e-05
4.69293e-05
5.24386e-05
5.53708e-05
5.65013e-05
5.66558e-05
5.67013e-05
5.70709e-05
5.77309e-05
5.8361e-05
5.86144e-05
5.83658e-05
5.79403e-05
5.83981e-05
5.85058e-05
3.99585e-05
5.25108e-05
2.71456e-05
2.16563e-05
2.75335e-05
3.71613e-05
4.61724e-05
5.25645e-05
5.62233e-05
5.77718e-05
5.78464e-05
5.74683e-05
5.7586e-05
5.83744e-05
5.949e-05
6.0378e-05
6.06985e-05
6.06737e-05
6.13975e-05
6.13704e-05
4.02318e-05
5.53344e-05
2.84885e-05
2.20193e-05
2.87632e-05
3.92573e-05
4.86824e-05
5.51604e-05
5.86361e-05
5.93509e-05
5.85599e-05
5.80617e-05
5.8254e-05
5.95335e-05
6.15129e-05
6.30725e-05
6.3642e-05
6.3594e-05
6.4192e-05
6.38219e-05
4.04885e-05
5.87389e-05
3.19802e-05
2.44365e-05
3.18852e-05
4.27242e-05
5.0982e-05
5.56975e-05
5.7728e-05
5.68171e-05
3.73463e-05
3.69593e-05
5.64539e-05
5.82372e-05
6.62486e-05
6.82285e-05
6.85773e-05
6.7437e-05
6.71049e-05
6.59285e-05
4.06932e-05
6.26788e-05
3.80388e-05
2.94326e-05
3.74675e-05
4.68226e-05
5.09746e-05
5.30325e-05
4.98393e-05
2.89445e-05
2.80077e-06
2.63076e-06
5.70708e-06
2.13715e-05
5.3123e-05
6.91459e-05
7.21606e-05
7.10781e-05
6.9837e-05
6.76145e-05
4.08062e-05
6.71897e-05
4.68698e-05
3.73597e-05
4.51509e-05
4.98273e-05
4.86626e-05
4.66228e-05
2.87286e-05
1.50179e-05
1.03237e-05
1.5124e-05
7.13159e-06
8.06671e-06
1.69103e-05
3.45508e-05
5.75612e-05
6.82114e-05
6.9957e-05
6.82808e-05
4.07753e-05
7.20821e-05
5.83984e-05
4.74678e-05
5.21081e-05
4.93566e-05
4.50887e-05
4.00952e-05
9.01342e-06
7.7669e-06
5.65648e-06
4.01133e-05
6.33299e-05
6.35622e-06
4.7044e-06
2.10439e-05
5.44487e-05
7.05595e-05
7.05946e-05
6.82643e-05
4.05668e-05
7.69069e-05
7.19042e-05
5.77368e-05
5.46028e-05
4.56584e-05
4.14758e-05
3.72304e-05
3.44172e-06
1.19336e-05
1.22494e-05
2.83502e-07
4.34594e-06
3.9013e-06
5.72748e-06
2.4377e-05
7.18892e-05
8.57397e-05
7.44424e-05
6.82084e-05
4.01649e-05
8.11484e-05
8.59099e-05
6.51558e-05
5.22696e-05
3.98816e-05
3.88021e-05
3.8433e-05
5.82717e-06
1.17212e-05
9.58774e-06
5.52131e-06
4.46054e-06
1.30219e-05
8.39102e-06
4.13214e-05
0.00010122
0.000109756
8.27128e-05
6.85696e-05
3.95552e-05
8.45125e-05
9.92917e-05
6.82191e-05
4.63261e-05
3.39294e-05
3.66233e-05
4.03216e-05
3.87011e-05
2.12313e-05
3.31313e-06
4.02546e-06
2.31149e-05
1.55689e-05
1.55211e-05
7.57757e-05
0.00014141
0.000140778
9.63113e-05
6.99111e-05
3.87768e-05
8.69996e-05
0.000112477
6.81713e-05
3.90838e-05
2.92619e-05
3.30548e-05
3.78628e-05
4.63834e-05
4.97442e-05
4.72364e-05
3.78069e-05
2.86182e-05
2.84568e-05
5.50991e-05
0.00012723
0.000189335
0.000176031
0.000114219
7.23584e-05
3.78056e-05
8.88983e-05
0.00012713
6.98032e-05
3.4654e-05
2.48125e-05
2.67083e-05
3.06557e-05
3.27507e-05
3.26542e-05
3.152e-05
3.15015e-05
3.72834e-05
5.39992e-05
9.65203e-05
0.00018766
0.000238434
0.000209358
0.000132688
7.58674e-05
3.65998e-05
9.02805e-05
0.00014442
7.76849e-05
3.61525e-05
2.15166e-05
1.90358e-05
2.17387e-05
2.6054e-05
3.07689e-05
3.57835e-05
4.25263e-05
5.43494e-05
8.16747e-05
0.000149402
0.000243487
0.000275727
0.000229254
0.000143963
7.81941e-05
3.5048e-05
9.07501e-05
0.000166017
9.59516e-05
4.8116e-05
2.94255e-05
2.37698e-05
2.31395e-05
2.55388e-05
3.05433e-05
3.84005e-05
5.06189e-05
7.1543e-05
0.000113176
0.000197515
0.000273644
0.000277187
0.000211821
0.000127746
7.36214e-05
3.27936e-05
8.93123e-05
0.00018479
0.0001238
7.24301e-05
4.77434e-05
3.73172e-05
3.34749e-05
3.40401e-05
3.84451e-05
4.73332e-05
6.2889e-05
9.04267e-05
0.000141744
0.000222554
0.000266694
0.000240155
0.000162799
8.76954e-05
5.56271e-05
2.84488e-05
8.37545e-05
0.000176513
0.000143719
0.000103976
7.7859e-05
6.25381e-05
5.50025e-05
5.3047e-05
5.6041e-05
6.4692e-05
8.14404e-05
0.000111681
0.000164524
0.000229327
0.000250975
0.000216585
0.000149975
8.94231e-05
5.12418e-05
2.97596e-05
6.89825e-05
7.26953e-05
7.35005e-05
7.3762e-05
7.39342e-05
7.43984e-05
7.55564e-05
7.76186e-05
8.06624e-05
8.4653e-05
8.93931e-05
9.43682e-05
9.89407e-05
9.67691e-05
8.87776e-05
7.71947e-05
6.45989e-05
5.33699e-05
4.31927e-05
3.45574e-05
4.01443e-05
4.03305e-05
4.12606e-05
4.2358e-05
4.33145e-05
4.40938e-05
4.47211e-05
4.52158e-05
4.55525e-05
4.56851e-05
4.55606e-05
4.51438e-05
4.44331e-05
4.34689e-05
4.23289e-05
4.11053e-05
3.98885e-05
3.87866e-05
3.79715e-05
3.7477e-05
4.14023e-05
3.34461e-05
3.51874e-05
4.02906e-05
4.40727e-05
4.58009e-05
4.65536e-05
4.72347e-05
4.80801e-05
4.89714e-05
4.96412e-05
4.98441e-05
4.94622e-05
4.85295e-05
4.71959e-05
4.57273e-05
4.46143e-05
4.48787e-05
4.61384e-05
3.80915e-05
4.37178e-05
2.16619e-05
1.97366e-05
2.67193e-05
3.61405e-05
4.30007e-05
4.57199e-05
4.67227e-05
4.81195e-05
4.98408e-05