/*--------------------------------*- C++ -*----------------------------------*\
| =========                 |                                                 |
| \\      /  F ield         | OpenFOAM: The Open Source CFD Toolbox           |
|  \\    /   O peration     | Version:                                        |
|   \\  /    A nd           | Website:  www.openfoam.com                      |
|    \\/     M anipulation  |                                                 |
\*---------------------------------------------------------------------------*/
FoamFile
{
    version     2.0;
    format      ascii;
    class       volScalarField;
    location    "900";
    object      p;
}
// * * * * * * * * * * * * * * * * * * * * * * * * * * * * * * * * * * * * * //

dimensions      [0 2 -2 0 0 0 0];


internalField   nonuniform List<scalar> 
206582
(
0.00182735
0.00181921
0.00169321
0.00153441
0.00135886
0.00116399
0.000957341
0.000751351
0.00055893
0.000394953
0.000276192
0.00021488
0.00021464
0.000269996
0.000366459
0.000482268
0.000592045
0.000731992
0.000932298
0.00112045
0.00162483
0.0016242
0.00149806
0.00135291
0.00119048
0.00100821
0.000814038
0.000619126
0.000435574
0.000277083
0.00015891
9.80944e-05
0.000104599
0.000173064
0.000283309
0.00040828
0.000507042
0.000639113
0.000862413
0.00109174
0.00146866
0.0014726
0.00133646
0.00119445
0.00103705
0.000860154
0.00067185
0.000482074
0.000301989
0.000145105
2.5046e-05
-4.12627e-05
-3.55446e-05
4.08237e-05
0.000161996
0.000294265
0.000372325
0.00047392
0.000704772
0.000951384
0.00133335
0.00132405
0.00116014
0.00100397
0.000837903
0.000655116
0.000462882
0.000270115
8.72775e-05
-7.28518e-05
-0.000194709
-0.000265065
-0.000256513
-0.000161539
-1.4143e-05
0.000140162
0.000211847
0.000289634
0.000523092
0.000769238
0.00123495
0.00121403
0.00102048
0.000842243
0.00065602
0.000455616
0.000247113
3.82337e-05
-0.000161585
-0.000339929
-0.000481289
-0.000573317
-0.000572428
-0.000450116
-0.00025362
-5.89083e-05
2.46511e-05
9.25807e-05
0.000329076
0.000568787
0.0011678
0.00113242
0.000905009
0.000696606
0.000480618
0.000251078
1.38855e-05
-0.000225159
-0.000458581
-0.000677404
-0.000872108
-0.00102426
-0.0010491
-0.000873418
-0.000576844
-0.000309509
-0.000190801
-0.000108112
0.000136876
0.000367193
0.00112212
0.00106908
0.000805633
0.000560195
0.000308822
4.32493e-05
-0.000230924
-0.000510163
-0.000791391
-0.00107582
-0.00137929
-0.00169718
-0.00179023
-0.00150047
-0.0010082
-0.000613377
-0.000428135
-0.000290147
-2.78124e-05
0.00019042
0.00109125
0.00101657
0.000716249
0.000430693
0.0001401
-0.000164233
-0.00047893
-0.000802527
-0.00113802
-0.0014989
-0.00196224
-0.0026132
-0.00286508
-0.00238445
-0.00152824
-0.000948679
-0.000654626
-0.000417657
-0.000133168
6.85937e-05
0.0010755
0.00097478
0.000638075
0.000312271
-1.70938e-05
-0.000358723
-0.000711355
-0.00107122
-0.00143717
-0.00181287
-0.00233186
-0.00311745
-0.00339621
-0.00293386
-0.00189953
-0.00117745
-0.000756354
-0.000442784
-0.000152672
2.46434e-05
0.00108267
0.000951975
0.000581109
0.00021772
-0.000146283
-0.000519432
-0.000898794
-0.00127086
-0.00161583
-0.00188566
-0.00223771
-0.00285719
-0.00314324
-0.00261558
-0.00175272
-0.001099
-0.00066782
-0.000347963
-8.00455e-05
6.47383e-05
0.00112689
0.00096321
0.000562078
0.000165605
-0.000226504
-0.000623043
-0.00101736
-0.0013813
-0.00166607
-0.00177598
-0.00199102
-0.0022919
-0.00234707
-0.00189466
-0.00129801
-0.000803334
-0.000441653
-0.000161592
6.58339e-05
0.000174436
0.00122734
0.00102785
0.000600566
0.000175451
-0.000239252
-0.000653217
-0.00105663
-0.00141263
-0.00165401
-0.00169377
-0.00179906
-0.00196251
-0.00190459
-0.00147987
-0.000949292
-0.000511675
-0.000184198
5.9443e-05
0.000246004
0.00032413
0.00140888
0.00117003
0.000719146
0.000267245
-0.000168997
-0.000598689
-0.00101099
-0.00136147
-0.00160034
-0.00162706
-0.00166125
-0.00173355
-0.00161227
-0.00124664
-0.000776601
-0.000336198
7.92584e-06
0.000254195
0.000420551
0.000481306
0.00170375
0.001423
0.000950759
0.000470832
7.21978e-06
-0.000447227
-0.000877838
-0.00124198
-0.00148712
-0.00153733
-0.00152465
-0.0015056
-0.00132308
-0.000977362
-0.00056709
-0.000180681
0.000144662
0.000394429
0.000560451
0.000620402
0.00214841
0.00182882
0.00134221
0.000835916
0.000337501
-0.000157478
-0.000625375
-0.00102781
-0.00130085
-0.00139201
-0.00135944
-0.00126831
-0.00104093
-0.0006946
-0.000311537
3.14921e-05
0.000305678
0.000517837
0.000671728
0.000734217
0.00276839
0.00242105
0.00193673
0.00141828
0.000892224
0.00035264
-0.00017317
-0.000635015
-0.00097063
-0.00112801
-0.00111818
-0.00100209
-0.000766006
-0.000435051
-7.77308e-05
0.000240206
0.000486582
0.000663909
0.000788661
0.000841289
0.00355205
0.00319331
0.00273661
0.00223771
0.0017156
0.00116347
0.000603507
8.15628e-05
-0.000339745
-0.000596428
-0.000668376
-0.00059802
-0.000409443
-0.000134294
0.000169046
0.00044592
0.000665565
0.000820794
0.000922007
0.000958585
0.00440886
0.00405457
0.00365171
0.00321365
0.00274805
0.00224863
0.0017295
0.00121742
0.000756544
0.000402006
0.000198465
0.000142379
0.000209786
0.000367206
0.000560204
0.000745208
0.000897282
0.00100506
0.00107318
0.00109447
0.00508646
0.00476458
0.00443056
0.00408087
0.00372132
0.00334346
0.00294979
0.00254719
0.00215419
0.00179846
0.00150906
0.00130066
0.00118273
0.00114983
0.00116081
0.00118557
0.00121225
0.00123157
0.00124499
0.00124417
0.00519625
0.00495011
0.00469559
0.00443156
0.00417331
0.00391627
0.00366062
0.00340517
0.00315041
0.00289582
0.00264061
0.00238251
0.00214035
0.00192621
0.00175368
0.00160645
0.0014902
0.00140453
0.00135039
0.00131401
0.00177688
0.00183589
0.00176994
0.00166144
0.00152768
0.00136383
0.00117564
0.000974391
0.00077297
0.000586412
0.000431226
0.000323879
0.00027776
0.000296438
0.000369485
0.000477509
0.00061675
0.000802675
0.00101798
0.00123425
0.00149127
0.00152463
0.00143819
0.00132561
0.00119359
0.00103647
0.000859772
0.000673885
0.00049093
0.000324909
0.000192538
0.000111735
9.57827e-05
0.000145215
0.000244621
0.000366986
0.000507359
0.000717182
0.000972877
0.00121988
0.00129343
0.00130696
0.00120678
0.00109288
0.000963483
0.000811497
0.000641956
0.000464236
0.00028959
0.000131166
4.24825e-06
-7.23283e-05
-7.89393e-05
-1.39582e-05
9.88502e-05
0.000224257
0.000346075
0.000554642
0.000827779
0.00108745
0.00114041
0.00113266
0.00100704
0.000877841
0.000739521
0.000580562
0.000405313
0.000222901
4.40261e-05
-0.000118749
-0.000249488
-0.000329685
-0.00032871
-0.000241913
-0.000102204
4.10341e-05
0.000152936
0.000356607
0.000630691
0.000883225
0.00103377
0.00101516
0.000865232
0.000711348
0.000552776
0.00037623
0.000182598
-1.9059e-05
-0.000218689
-0.000405692
-0.000563852
-0.000671551
-0.000672787
-0.000552808
-0.000359789
-0.00017679
-6.10996e-05
0.000141367
0.000409902
0.000647169
0.000956997
0.000928494
0.000756847
0.000572827
0.000382238
0.000175292
-4.95365e-05
-0.000284049
-0.000519688
-0.000755117
-0.000976341
-0.00115903
-0.00118244
-0.00100222
-0.000708484
-0.000449926
-0.000302267
-8.43897e-05
0.000181101
0.000401221
0.000899872
0.000858228
0.000662461
0.000445852
0.000217844
-2.84393e-05
-0.000293942
-0.00056894
-0.000852478
-0.0011632
-0.0015008
-0.0018505
-0.00192853
-0.00163053
-0.00115452
-0.000771766
-0.000552421
-0.00029641
-3.01584e-05
0.000173019
0.000857135
0.000797007
0.000574219
0.000320994
5.33152e-05
-0.000236561
-0.000548764
-0.000868422
-0.00122902
-0.00164563
-0.00216374
-0.00279846
-0.00299756
-0.00249016
-0.00167606
-0.00110879
-0.000771172
-0.000456134
-0.00018591
2.13706e-06
0.000828509
0.000744517
0.000493365
0.000202037
-0.000105712
-0.00044001
-0.000801344
-0.00117789
-0.00160517
-0.0020823
-0.00272042
-0.00351329
-0.00368213
-0.00307427
-0.00204353
-0.00132686
-0.000873762
-0.000514299
-0.000246964
-7.43899e-05
0.000819372
0.000707485
0.000429652
0.000101971
-0.000243035
-0.000617173
-0.00102158
-0.001433
-0.00187117
-0.00230597
-0.00281193
-0.0034524
-0.00361167
-0.00292209
-0.0019599
-0.00126934
-0.000801961
-0.000446422
-0.000199482
-4.804e-05
0.000842636
0.00069983
0.000398775
3.9488e-05
-0.000336217
-0.000742003
-0.00117438
-0.00159536
-0.00195188
-0.00227413
-0.00261212
-0.00291931
-0.00286966
-0.00228231
-0.00157747
-0.000995885
-0.000580169
-0.00027089
-6.31765e-05
6.0721e-05
0.000919475
0.000741539
0.000418982
3.17142e-05
-0.000368617
-0.000796515
-0.00124675
-0.00168816
-0.00195094
-0.00218383
-0.00237354
-0.00252891
-0.00238835
-0.00184425
-0.0012182
-0.000690951
-0.000312129
-4.59405e-05
0.000122968
0.000218085
0.00107754
0.000858715
0.000512155
9.5224e-05
-0.000330142
-0.000778937
-0.00123585
-0.00163632
-0.00193245
-0.0020948
-0.00219171
-0.00221843
-0.00201904
-0.00153379
-0.000956196
-0.000452866
-8.22965e-05
0.000169369
0.000318482
0.000390809
0.00134991
0.00108697
0.000712609
0.000260017
-0.000199003
-0.000680007
-0.00115761
-0.00154352
-0.00182719
-0.00199454
-0.00200562
-0.00192265
-0.00164836
-0.00119202
-0.00067205
-0.000217015
0.000119332
0.000352432
0.000494829
0.000555406
0.00177266
0.00147012
0.00107062
0.000579933
7.5429e-05
-0.000455452
-0.00096302
-0.001387
-0.00169201
-0.00185387
-0.00182789
-0.00165492
-0.00132177
-0.000864879
-0.000378898
3.92521e-05
0.000339539
0.000534923
0.000655712
0.000704841
0.0023729
0.00204317
0.00163113
0.00111189
0.000565132
-1.65539e-05
-0.000584823
-0.00107784
-0.0014407
-0.00163283
-0.00161754
-0.00141969
-0.00107047
-0.000628396
-0.000174556
0.000220302
0.000515067
0.000702148
0.000806966
0.000841549
0.00314033
0.00279668
0.00238924
0.00186655
0.00130224
0.000694295
7.77696e-05
-0.000484846
-0.000925174
-0.0011875
-0.00124178
-0.00110112
-0.000809015
-0.000428006
-3.04097e-05
0.00032641
0.000611216
0.000809512
0.00092148
0.000953944
0.0039804
0.00362816
0.00323724
0.00274152
0.00220372
0.00162413
0.00102784
0.000454924
-3.77182e-05
-0.000388008
-0.000552482
-0.000537383
-0.000377417
-0.000109639
0.000199642
0.000490912
0.000733075
0.000911245
0.00102023
0.00105511
0.00465964
0.00430671
0.00394349
0.00349901
0.00302087
0.00251124
0.00198806
0.00147555
0.00101114
0.000638498
0.000392237
0.000275798
0.000282491
0.000410335
0.000594033
0.000779316
0.000940983
0.00106309
0.00114084
0.00117113
0.0048411
0.00453002
0.0042279
0.0038631
0.00347831
0.00307839
0.00267852
0.00229557
0.00194891
0.0016561
0.00143035
0.00126151
0.00113797
0.00109135
0.00111535
0.0011524
0.00119024
0.0012191
0.00123682
0.00124362
0.00148872
0.00151984
0.00144609
0.00135732
0.00126122
0.00114381
0.00100555
0.000854065
0.000698593
0.000550084
0.00042223
0.000330365
0.000289055
0.00030655
0.000381895
0.000508615
0.000683539
0.000906164
0.00115983
0.00142068
0.00124213
0.00123546
0.00113809
0.00103459
0.000930661
0.000812744
0.000680429
0.00054096
0.000403706
0.000279202
0.000179801
0.000119123
0.000110445
0.000159648
0.000262135
0.000408537
0.000598057
0.000838722
0.0011081
0.0014007
0.00108461
0.0010558
0.000948338
0.00083656
0.000725034
0.000601935
0.000466775
0.000326968
0.000192327
7.31019e-05
-1.93296e-05
-7.16303e-05
-6.73156e-05
-6.01294e-07
0.000118169
0.000273219
0.000463374
0.000707516
0.000978156
0.00128237
0.000956485
0.000912969
0.000795745
0.000670813
0.000545168
0.000407263
0.000257256
0.000103519
-4.27672e-05
-0.000171358
-0.000271477
-0.000329387
-0.000318843
-0.000231796
-8.87329e-05
8.53727e-05
0.000280004
0.000524181
0.000787647
0.00108667
0.000858763
0.00080992
0.000687849
0.000549986
0.000407444
0.000249069
7.60933e-05
-0.000102239
-0.000272764
-0.000427685
-0.000557406
-0.000648536
-0.000645699
-0.000533894
-0.000345102
-0.000133482
7.28216e-05
0.00031524
0.000566169
0.00085237
0.000784461
0.000729785
0.000598887
0.000443195
0.000276912
8.94785e-05
-0.00011552
-0.000326965
-0.000531296
-0.000732673
-0.0009249
-0.00109948
-0.0011246
-0.000960065
-0.000679539
-0.00039892
-0.000163141
8.59877e-05
0.000326428
0.000596329
0.000728205
0.000663567
0.000516665
0.000333962
0.000136858
-8.71894e-05
-0.000332378
-0.00058531
-0.000844515
-0.00113805
-0.00145053
-0.0017872
-0.00185583
-0.00155941
-0.00110249
-0.000704625
-0.000411947
-0.000142606
9.09845e-05
0.000339053
0.000685564
0.000605241
0.000435884
0.000218133
-1.72822e-05
-0.000285528
-0.00057893
-0.000898815
-0.00104842
-0.00138702
-0.00183355
-0.00286761
-0.00301088
-0.00240338
-0.00160561
-0.00102869
-0.000643337
-0.000335671
-0.000102945
0.000118806
0.000653329
0.000552251
0.000357543
0.000101004
-0.000176753
-0.000494635
-0.000854303
-0.0010708
-0.00148
-0.00201151
-0.00271555
-0.00351675
-0.00388858
-0.003191
-0.00201321
-0.00125728
-0.000774107
-0.000432358
-0.000204035
-1.42976e-05
0.000633939
0.000508173
0.000289214
-4.25274e-06
-0.000323235
-0.000694597
-0.00113732
-0.00143334
-0.00199259
-0.00269843
-0.00352428
-0.00443174
-0.00464958
-0.00366154
-0.00203599
-0.00125724
-0.000753714
-0.000409582
-0.000194741
-3.81514e-05
0.000642033
0.000486434
0.000245075
-7.94379e-05
-0.00043194
-0.000845412
-0.00134371
-0.00171342
-0.00233738
-0.00304942
-0.00376061
-0.00414818
-0.00397513
-0.0031513
-0.00178283
-0.00105674
-0.00059169
-0.000281617
-9.54972e-05
3.32261e-05
0.000703105
0.000509519
0.000243014
-0.000110039
-0.000487475
-0.0009259
-0.00143347
-0.00189234
-0.00242499
-0.00290808
-0.00338346
-0.00360995
-0.00344509
-0.0023469
-0.00145214
-0.000779891
-0.00035324
-8.58623e-05
6.54427e-05
0.000168814
0.000845269
0.000605568
0.000305437
-8.25706e-05
-0.000487019
-0.000948532
-0.00145448
-0.00200802
-0.00246498
-0.00271894
-0.00299664
-0.0031014
-0.00280136
-0.00197979
-0.00114774
-0.000511632
-0.000108726
0.000128872
0.00025462
0.000335708
0.00109762
0.000809871
0.000468582
3.50971e-05
-0.000402913
-0.000887455
-0.0014145
-0.00193518
-0.00235444
-0.00261506
-0.00266227
-0.00275128
-0.00230591
-0.00158826
-0.000838326
-0.000253086
0.00011883
0.000334178
0.000444457
0.000507922
0.00149524
0.00116612
0.000786526
0.000303459
-0.000186888
-0.000723215
-0.0012856
-0.00180722
-0.00220302
-0.00245092
-0.00249574
-0.00231359
-0.00185347
-0.00121041
-0.000547318
-1.88909e-05
0.000326191
0.000523021
0.000621542
0.000670721
0.00207377
0.00171155
0.00130526
0.000772093
0.000214988
-0.000383707
-0.000988484
-0.0015406
-0.00196114
-0.00219201
-0.00219497
-0.00196238
-0.00150828
-0.000924727
-0.000342534
0.000137039
0.000474314
0.000675605
0.000775418
0.000816301
0.00282949
0.00243425
0.00201095
0.00145073
0.000851887
0.000214109
-0.000427607
-0.00101208
-0.0014664
-0.00172903
-0.00176692
-0.00157864
-0.00120293
-0.000713074
-0.000216007
0.000209202
0.000538082
0.000764367
0.000889066
0.000936629
0.00366297
0.00323266
0.00280012
0.00224255
0.00164731
0.00102212
0.000397438
-0.000181635
-0.000658885
-0.000977769
-0.0011032
-0.00103465
-0.000807721
-0.000463448
-7.71282e-05
0.00028113
0.000583695
0.000818979
0.000972403
0.00103614
0.00434917
0.00388295
0.00343995
0.00289825
0.0023299
0.00174326
0.00116389
0.000622185
0.000160005
-0.000178271
-0.000366117
-0.000421352
-0.000352274
-0.000141075
0.000144219
0.000434592
0.000695826
0.000906765
0.00105518
0.00113521
0.00460509
0.00417275
0.00378511
0.00331732
0.00283302
0.00234096
0.00186379
0.00142522
0.00104933
0.000759236
0.000572758
0.000464702
0.000420292
0.000497276
0.000664995
0.000828302
0.000974503
0.00109011
0.00116867
0.00122388
0.00118386
0.00116461
0.00105239
0.000953215
0.000867219
0.000773549
0.000669209
0.000559408
0.000451074
0.000352154
0.000272245
0.000222579
0.000215038
0.00025883
0.000357741
0.000511036
0.000716138
0.000967651
0.00124178
0.00151658
0.00101235
0.000955661
0.000830412
0.000715922
0.000617361
0.000516502
0.000409192
0.000301522
0.000201801
0.00011824
5.91696e-05
3.37581e-05
5.25234e-05
0.000122606
0.000244971
0.000416477
0.000635157
0.000898988
0.00118338
0.00148693
0.000891039
0.000821648
0.000704883
0.000587697
0.000480938
0.000370421
0.000252026
0.000133719
2.69223e-05
-5.86105e-05
-0.000115174
-0.000134942
-0.000106119
-2.21278e-05
0.000113392
0.000293311
0.000514612
0.000777638
0.00105593
0.00136615
0.000776422
0.000704928
0.000599143
0.000483241
0.000367507
0.000242061
0.000104147
-3.53833e-05
-0.000161317
-0.000261181
-0.000327863
-0.000354988
-0.000323388
-0.000225938
-7.32402e-05
0.000121497
0.000347518
0.000606733
0.000872373
0.00117388
0.000682477
0.000611845
0.000517939
0.000404259
0.000282408
0.000139926
-2.11558e-05
-0.000186882
-0.00033941
-0.000465199
-0.000557044
-0.000613645
-0.000590611
-0.000478868
-0.000294002
-7.24212e-05
0.000160711
0.000412378
0.000660338
0.00094617
0.000608495
0.000535826
0.000442798
0.000320974
0.000185078
1.78161e-05
-0.000172175
-0.000364893
-0.000547146
-0.000714681
-0.000859291
-0.000990123
-0.000986541
-0.000829244
-0.000570483
-0.000298584
-4.90515e-05
0.000198431
0.00043021
0.000698589
0.000551958
0.000471967
0.000369047
0.000224494
6.08772e-05
-0.000140852
-0.000362946
-0.000590447
-0.000690427
-0.000900122
-0.00112884
-0.00159856
-0.00159197
-0.00133713
-0.000923856
-0.000556234
-0.000270795
-1.93099e-05
0.000199145
0.000445704
0.00050796
0.000415409
0.000293784
0.000115066
-8.71198e-05
-0.000331286
-0.000590053
-0.000739514
-0.00108688
-0.00146225
-0.0018998
-0.00229671
-0.00247466
-0.00205215
-0.00136371
-0.000847733
-0.000492389
-0.000217618
-4.9768e-06
0.00021432
0.000471169
0.00036171
0.000216869
-7.57029e-07
-0.000245307
-0.000529415
-0.000711583
-0.00112641
-0.00168065
-0.00244077
-0.00336322
-0.00431207
-0.00443623
-0.00333652
-0.00182481
-0.00110809
-0.000650983
-0.000341324
-0.000135003
4.98306e-05
0.000444803
0.000312969
0.000144076
-0.00010912
-0.000394629
-0.000726413
-0.00098902
-0.00159513
-0.00255399
-0.00408416
-0.00566943
-0.00605438
-0.00608651
-0.00420173
-0.0021452
-0.00123606
-0.000690171
-0.000357849
-0.000163099
-1.45099e-05
0.000448259
0.000284643
9.03834e-05
-0.000190709
-0.00050493
-0.000868255
-0.00121473
-0.0019242
-0.00319104
-0.00467027
-0.00668952
-0.006819
-0.00601292
-0.00414458
-0.00209987
-0.00115274
-0.000601437
-0.000278528
-9.82011e-05
2.08358e-05
0.000507231
0.000301183
7.5813e-05
-0.000232712
-0.000562361
-0.000939919
-0.00138156
-0.00203893
-0.00302144
-0.00413974
-0.00541513
-0.00541026
-0.00507152
-0.00378585
-0.00178476
-0.000909416
-0.000403898
-0.000117825
3.56861e-05
0.000131817
0.000640559
0.000386428
0.000120894
-0.000225543
-0.000579124
-0.00101315
-0.00156074
-0.00214409
-0.00284301
-0.00368375
-0.00425165
-0.00467808
-0.00446174
-0.00265921
-0.00144064
-0.000625579
-0.000161352
8.85411e-05
0.000212533
0.000288311
0.000871202
0.000570701
0.000257596
-0.000144726
-0.000543901
-0.00103338
-0.00158508
-0.00222497
-0.00282772
-0.00338187
-0.00386953
-0.00409018
-0.00324339
-0.00213961
-0.00108371
-0.000347695
7.82688e-05
0.000301662
0.000403778
0.000462099
0.00124282
0.00089785
0.000531971
5.88329e-05
-0.000416049
-0.000963615
-0.00156929
-0.00218481
-0.00276064
-0.00321803
-0.00344101
-0.0032359
-0.00258202
-0.00164485
-0.00074801
-9.75292e-05
0.000291969
0.000496158
0.000586274
0.000631801
0.00181366
0.00141506
0.000996474
0.000447863
-0.000117422
-0.000724814
-0.00136248
-0.00197653
-0.00249206
-0.00283711
-0.00292417
-0.00267472
-0.00207207
-0.00126487
-0.000498408
8.10329e-05
0.000449983
0.000652218
0.000743851
0.000784422
0.00258709
0.00212302
0.00165813
0.00105502
0.000429122
-0.000216593
-0.000860698
-0.00145711
-0.00193588
-0.00223925
-0.00232071
-0.00212144
-0.0016324
-0.000982266
-0.0003514
0.00015023
0.000506011
0.000735627
0.000860009
0.000913629
0.00345163
0.00291895
0.00242313
0.00180483
0.00116743
0.000525834
-9.28416e-05
-0.000647821
-0.00109754
-0.00139869
-0.00151798
-0.00143046
-0.00113303
-0.000691049
-0.00023136
0.000166092
0.000491665
0.000750195
0.000929827
0.0010153
0.00417558
0.00356653
0.0030313
0.00240777
0.00178122
0.00116609
0.00058816
7.03824e-05
-0.000353157
-0.000645135
-0.000782078
-0.000786206
-0.000665858
-0.00040327
-8.59309e-05
0.000226516
0.00052007
0.000778535
0.000982772
0.0011148
0.00452541
0.00393437
0.00344131
0.00287802
0.00232222
0.00178676
0.00129408
0.000863534
0.00051747
0.00028592
0.000183705
0.000144514
0.000141259
0.000257761
0.000457845
0.000644666
0.000827427
0.000994248
0.00112524
0.00123382
0.000985877
0.000925284
0.000780501
0.000663001
0.000567247
0.000472294
0.000376575
0.000286701
0.000209327
0.000149274
0.000111073
0.000100603
0.000125564
0.000193577
0.00031009
0.000477691
0.000695581
0.00095792
0.00123559
0.00153218
0.000850583
0.000761804
0.000626549
0.000504227
0.000398671
0.000295029
0.000191511
9.66176e-05
1.96551e-05
-3.342e-05
-5.89776e-05
-5.29374e-05
-9.33435e-06
7.74636e-05
0.000210978
0.000392487
0.000620965
0.000892624
0.00117733
0.00149651
0.000743113
0.000651916
0.000545818
0.000432156
0.000322453
0.000209097
8.99733e-05
-2.33436e-05
-0.000115908
-0.000178109
-0.000206405
-0.000198292
-0.000148547
-5.26382e-05
9.05504e-05
0.000278707
0.000509058
0.000778835
0.00105588
0.0013749
0.000638884
0.000553901
0.000471275
0.000370164
0.000261359
0.00013855
1.68364e-07
-0.000140222
-0.000259672
-0.000342673
-0.000385633
-0.000386712
-0.000338208
-0.000233979
-7.81874e-05
0.000119967
0.000352703
0.000617924
0.000882531
0.00118863
0.000553356
0.000472236
0.000404993
0.000314908
0.000211235
8.10359e-05
-7.62014e-05
-0.000244352
-0.000396961
-0.000508501
-0.000577317
-0.000600982
-0.000559911
-0.000441887
-0.000264926
-5.24155e-05
0.00018087
0.000436051
0.000682585
0.000968328
0.00048387
0.000399962
0.000335228
0.000241016
0.000132173
-1.27785e-05
-0.000193821
-0.000389307
-0.000583298
-0.000738034
-0.000859191
-0.000914383
-0.000885596
-0.000721521
-0.000488992
-0.000243878
-4.28914e-06
0.000241041
0.000468467
0.000730581
0.000427869
0.000334288
0.000262068
0.000149605
1.67427e-05
-0.000156895
-0.000360054
-0.000479931
-0.000703828
-0.000882556
-0.00106906
-0.00122378
-0.00135218
-0.00110755
-0.000762058
-0.000449314
-0.000190059
4.89985e-05
0.000256796
0.0004914
0.000381332
0.000273181
0.00018606
4.31854e-05
-0.00012595
-0.00032849
-0.000460526
-0.00074658
-0.00109604
-0.00152514
-0.00189951
-0.00220324
-0.00205875
-0.00166972
-0.00110135
-0.000672503
-0.000367572
-0.000122024
7.0229e-05
0.000274041
0.000342123
0.000215321
0.000109097
-7.08948e-05
-0.000275823
-0.000515874
-0.000714674
-0.00113884
-0.00160865
-0.00282935
-0.00375654
-0.00413082
-0.00426117
-0.00302628
-0.00160368
-0.000912293
-0.000510006
-0.000239098
-5.78279e-05
0.000112857
0.000319315
0.000166829
3.89706e-05
-0.000174982
-0.00040221
-0.000667637
-0.000947599
-0.00162995
-0.00284388
-0.00592908
-0.00931514
-0.0096072
-0.00758516
-0.00463166
-0.00218317
-0.0011138
-0.000577222
-0.000272965
-0.000101547
3.65268e-05
0.000333622
0.000145128
-8.07829e-06
-0.000246639
-0.000487386
-0.000762361
-0.00109014
-0.00190168
-0.00336331
-0.0101856
-0.0242324
-0.00994028
-0.00544954
-0.00243175
-0.00117511
-0.000552931
-0.000225587
-6.03901e-05
5.02653e-05
0.000397473
0.000166772
-1.51756e-05
-0.000276989
-0.000535692
-0.000842107
-0.00120634
-0.00188693
-0.00314675
-0.00552058
-0.010789
-0.00211918
-0.00821015
-0.00534429
-0.00225242
-0.0010426
-0.00041446
-0.000101483
4.86058e-05
0.000138806
0.000512227
0.000238718
2.08161e-05
-0.000276664
-0.000567567
-0.000920888
-0.00135729
-0.00203763
-0.00303505
-0.00437739
-0.00495257
-0.00694027
-0.00651611
-0.00466612
-0.00184419
-0.000774401
-0.000194148
8.34311e-05
0.000207258
0.00027843
0.000709452
0.000389719
0.000117826
-0.000246669
-0.000599958
-0.00102745
-0.00155838
-0.00219844
-0.00317798
-0.00435952
-0.00535618
-0.00583818
-0.00544619
-0.00292685
-0.00143771
-0.000468084
4.92397e-05
0.000291719
0.000390404
0.000443719
0.00106438
0.000683029
0.000327535
-0.000126937
-0.000573285
-0.00108288
-0.00167646
-0.0023873
-0.00317594
-0.00395694
-0.00454339
-0.00451581
-0.0035811
-0.00220909
-0.00100663
-0.000178876
0.000273276
0.000487248
0.000570576
0.00061107
0.0016619
0.00119393
0.000742541
0.000186011
-0.000357463
-0.000923471
-0.00151736
-0.00214951
-0.00278916
-0.00336524
-0.00370136
-0.00354576
-0.00274539
-0.00164116
-0.000649771
4.83361e-05
0.00045008
0.000646659
0.000726845
0.000764816
0.002497
0.00192981
0.00140053
0.0007562
0.000124957
-0.000487841
-0.00109402
-0.00168557
-0.00221976
-0.0026213
-0.00278289
-0.00259233
-0.00198749
-0.00115585
-0.000388251
0.000172835
0.000529763
0.000735857
0.000845378
0.000899155
0.00343722
0.00277449
0.00220021
0.00152997
0.000874861
0.000253226
-0.000329988
-0.000855672
-0.00128085
-0.00156478
-0.00167966
-0.00158079
-0.00122222
-0.000690983
-0.00018064
0.0002083
0.000500133
0.000732817
0.00090957
0.00100839
0.00423081
0.00346022
0.0028293
0.00214678
0.00149893
0.000901138
0.00036907
-8.3788e-05
-0.00043322
-0.000649121
-0.000721573
-0.000681743
-0.000530269
-0.000261751
1.22852e-05
0.000252246
0.000486583
0.000724701
0.000949613
0.00112237
0.00469146
0.00392549
0.00332038
0.00268295
0.00209676
0.00157886
0.00114792
0.000813581
0.000591743
0.000511485
0.000563142
0.000606343
0.000597843
0.000627946
0.000679335
0.000720998
0.000817742
0.000967575
0.00112783
0.00128736
0.00085984
0.000775371
0.000631252
0.000518244
0.000423877
0.000329804
0.000237201
0.000156282
9.59946e-05
5.84713e-05
4.2862e-05
5.00473e-05
8.46579e-05
0.000153959
0.000265433
0.00042492
0.000633592
0.000886043
0.00114612
0.00143524
0.000728427
0.000626445
0.000515807
0.000414054
0.00031797
0.000215338
0.000109227
1.50234e-05
-5.24502e-05
-8.88754e-05
-9.62634e-05
-7.60278e-05
-2.58437e-05
5.92673e-05
0.000184927
0.000355692
0.000572353
0.000831267
0.00109543
0.00139988
0.000626649
0.000535966
0.000459246
0.000372749
0.000280737
0.000168819
3.95752e-05
-8.20758e-05
-0.000171198
-0.000218757
-0.000228159
-0.000204095
-0.000146749
-5.34556e-05
7.94166e-05
0.000254489
0.000471447
0.00072748
0.000983325
0.0012833
0.000538199
0.000458749
0.000401785
0.000323015
0.000230172
0.000109425
-3.83906e-05
-0.000188955
-0.000305415
-0.000371427
-0.000390669
-0.000369388
-0.000307598
-0.000205647
-6.46157e-05
0.000115009
0.000331127
0.000581326
0.000824814
0.0011106
0.000468118
0.000391633
0.000341617
0.000261871
0.000168065
4.30769e-05
-0.000117803
-0.00029404
-0.000441081
-0.000528919
-0.000566607
-0.000557143
-0.000489819
-0.00037337
-0.00022031
-3.58983e-05
0.000176119
0.00041531
0.000641886
0.00090773
0.000409736
0.000326634
0.000272563
0.000179801
7.53605e-05
-5.95299e-05
-0.000233255
-0.000428952
-0.000608433
-0.00071169
-0.000787527
-0.000814935
-0.000728458
-0.00057716
-0.000397615
-0.000198617
1.27386e-05
0.000240311
0.000448798
0.000692069
0.000358691
0.000260825
0.000193006
7.72111e-05
-4.49897e-05
-0.000194862
-0.000384478
-0.000528823
-0.000728197
-0.000763743
-0.000865684
-0.00106372
-0.00103304
-0.000804642
-0.000586615
-0.000360268
-0.000144133
7.29331e-05
0.000262836
0.000480832
0.000311774
0.00019233
0.000102806
-3.92243e-05
-0.000180187
-0.000348335
-0.000484722
-0.000740368
-0.00105146
-0.000933825
-0.00160133
-0.00219332
-0.00182848
-0.00126061
-0.000789978
-0.000506487
-0.000276332
-6.6333e-05
0.000105516
0.000295275
0.000271382
0.000122831
6.97654e-06
-0.000157659
-0.000315296
-0.000511643
-0.000685126
-0.00104545
-0.00166996
-0.00320213
-0.00671912
-0.00608193
-0.0043817
-0.0027223
-0.00111624
-0.000653147
-0.000374342
-0.000157606
-2.1917e-07
0.000159963
0.000250984
6.39964e-05
-7.81926e-05
-0.000263006
-0.000422565
-0.000619575
-0.000829244
-0.00144572
-0.00487861
-0.0483384
-0.068279
0.002452
-0.00773487
-0.00458406
-0.00155277
-0.00078277
-0.000419321
-0.000182063
-3.70535e-05
9.41362e-05
0.000265919
3.29467e-05
-0.000132351
-0.000330307
-0.0004841
-0.000668679
-0.00083274
-0.00102316
-0.00854447
-0.0688835
-0.0658601
-0.0264119
-0.0115629
-0.00666447
-0.00195657
-0.000917003
-0.000415779
-0.000141364
-3.7935e-06
0.000102129
0.000312409
3.6413e-05
-0.000151505
-0.000359942
-0.000522921
-0.000733506
-0.000975599
-0.00132299
-0.00520324
-0.0377962
-0.0371364
-0.0176531
-0.012073
-0.00765427
-0.00213216
-0.00095823
-0.000337993
-4.17376e-05
8.92314e-05
0.000175145
0.000387405
6.35057e-05
-0.000167769
-0.000397959
-0.000580288
-0.000841212
-0.00126137
-0.00185606
-0.00364209
-0.00740403
-0.00945703
-0.0100462
-0.00990306
-0.00670545
-0.0020035
-0.000810614
-0.000167849
0.000116647
0.000230298
0.000297267
0.000573026
0.000171268
-0.00015111
-0.000461159
-0.000697039
-0.00100816
-0.00147814
-0.00209597
-0.00347623
-0.00535475
-0.00690747
-0.00820271
-0.00809058
-0.00361617
-0.00168081
-0.000523711
6.02343e-05
0.000309916
0.000401079
0.000448435
0.000988603
0.000483536
3.07666e-05
-0.000420057
-0.000789064
-0.00116753
-0.00169783
-0.00250463
-0.00361342
-0.00486995
-0.0059252
-0.00611493
-0.00474152
-0.00270438
-0.00117983
-0.000197011
0.000293019
0.00050235
0.000574134
0.000606831
0.00170476
0.00108937
0.00051955
-8.85492e-05
-0.000598022
-0.00108535
-0.00164508
-0.00234791
-0.00316337
-0.00398498
-0.00459784
-0.00452805
-0.00337331
-0.00188104
-0.00068611
8.91636e-05
0.000491758
0.000666169
0.000725974
0.000756206
0.0026621
0.00193768
0.00129602
0.000586465
-5.9012e-05
-0.000650683
-0.00122527
-0.00181955
-0.00241674
-0.00292514
-0.00317562
-0.00295495
-0.00213017
-0.00111326
-0.000263424
0.000294684
0.000610966
0.000767253
0.000843891
0.000891302
0.00369663
0.00287035
0.00219151
0.00146499
0.000791227
0.000194065
-0.000338527
-0.000814175
-0.00119576
-0.0014315
-0.00148559
-0.00131844
-0.000888194
-0.000349502
0.000117318
0.000414884
0.000607268
0.000760401
0.000901448
0.00100575
0.00455718
0.00361398
0.00288217
0.00215975
0.00151497
0.000967237
0.000526905
0.000203737
1.77813e-05
-1.10787e-05
7.68269e-05
0.00017837
0.000284263
0.000408886
0.000488832
0.000526277
0.000601374
0.000744805
0.000940708
0.00113603
0.00512039
0.00417994
0.00346188
0.00278419
0.00223038
0.00181964
0.0015592
0.00144947
0.00150125
0.00171827
0.00200424
0.0020975
0.00196335
0.00172427
0.00142303
0.00112772
0.00097475
0.00100734
0.00115449
0.00135459
0.000757162
0.000654035
0.000534592
0.000446202
0.00036897
0.000289273
0.000210128
0.000145759
0.000105234
8.53449e-05
7.99033e-05
8.61903e-05
0.000108058
0.000154509
0.000236901
0.000365414
0.000543754
0.000768373
0.000998961
0.00126421
0.000623088
0.000521594
0.000443603
0.000377447
0.000313378
0.000230001
0.000131892
4.3218e-05
-1.31086e-05
-3.62394e-05