/*--------------------------------*- C++ -*----------------------------------*\
| =========                 |                                                 |
| \\      /  F ield         | OpenFOAM: The Open Source CFD Toolbox           |
|  \\    /   O peration     | Version:                                        |
|   \\  /    A nd           | Website:  www.openfoam.com                      |
|    \\/     M anipulation  |                                                 |
\*---------------------------------------------------------------------------*/
FoamFile
{
    version     2.0;
    format      ascii;
    class       volScalarField;
    location    "1000";
    object      epsilon;
}
// * * * * * * * * * * * * * * * * * * * * * * * * * * * * * * * * * * * * * //

dimensions      [0 2 -3 0 0 0 0];


internalField   nonuniform List<scalar> 
206582
(
0.000321921
0.000336412
0.000345173
0.000349926
0.00035063
0.000348333
0.000343273
0.000336233
0.000328734
0.000322339
0.000318118
0.000316669
0.000318329
0.000323425
0.000332045
0.00034382
0.000357486
0.000369448
0.000375293
0.000361264
0.000339634
0.000918928
0.000871307
0.000872312
0.000884653
0.000898874
0.000912301
0.000922696
0.000928899
0.00093145
0.000931738
0.000931012
0.000930457
0.000931071
0.000933167
0.000935851
0.000937036
0.000933936
0.000956709
0.000377862
0.000346197
0.000861529
0.000765818
0.000752322
0.000760076
0.000772667
0.000786063
0.000798031
0.000807026
0.000812638
0.000815446
0.000815772
0.000814295
0.000812248
0.000810321
0.000808029
0.000804601
0.000804497
0.000874525
0.000396673
0.000355985
0.000863981
0.000745354
0.000720084
0.000721639
0.000729441
0.000738476
0.000746763
0.000753039
0.000756593
0.000758777
0.000759315
0.000758015
0.000755914
0.000753393
0.000750903
0.000749938
0.000760794
0.000861787
0.000412629
0.000374765
0.000886353
0.000752464
0.000719437
0.000718019
0.000723502
0.000728433
0.000731306
0.000733361
0.000734655
0.000735621
0.00073582
0.000734906
0.000733413
0.000731974
0.000731262
0.000734165
0.000755537
0.000874858
0.000425598
0.000407021
0.000919112
0.000768382
0.000727931
0.000723284
0.000723728
0.000725138
0.000726271
0.000726943
0.000727195
0.000727341
0.000727137
0.000726419
0.000725589
0.000725158
0.000726071
0.000732122
0.000760827
0.000891621
0.000435997
0.00044774
0.000951275
0.000783652
0.000733831
0.000724093
0.000723203
0.000723953
0.000724652
0.000724915
0.000724748
0.00072446
0.00072405
0.000723545
0.000723232
0.000723577
0.0007257
0.000734085
0.000767603
0.000905959
0.000444307
0.000489512
0.00095975
0.000781129
0.000732978
0.000723514
0.000722622
0.0007234
0.000724081
0.000724225
0.000723911
0.000723458
0.000723012
0.000722752
0.000722863
0.000723737
0.000726687
0.000736686
0.000773195
0.000916566
0.000451085
0.000501661
0.000926668
0.000765465
0.000728931
0.000722634
0.000722543
0.000723314
0.000723897
0.000724044
0.000723805
0.00072323
0.000722772
0.000722764
0.000723157
0.000724345
0.000727769
0.000738687
0.000776845
0.000923408
0.000456917
0.000487447
0.000890831
0.000751853
0.000724695
0.000721134
0.000721724
0.000722503
0.00072296
0.000723365
0.000723706
0.000723206
0.000722771
0.000722949
0.000723501
0.000724843
0.000728436
0.000739453
0.000778385
0.000926811
0.000462448
0.000476677
0.000859857
0.000740481
0.000721652
0.00071967
0.00072015
0.000719968
0.000719986
0.000721259
0.000722889
0.000722798
0.000722656
0.000722999
0.000723628
0.000724976
0.000728459
0.00073858
0.000777889
0.000927222
0.000468374
0.000471737
0.00083554
0.000728912
0.000719297
0.000718756
0.000719328
0.0007188
0.000717943
0.000719594
0.000721847
0.000722225
0.000722431
0.000722858
0.00072345
0.000724656
0.000727739
0.000736914
0.000775623
0.000925188
0.000475382
0.000469964
0.000819678
0.000722459
0.000717755
0.000718065
0.000718862
0.000718845
0.000718732
0.000719619
0.000721164
0.000721779
0.000722113
0.000722507
0.000722986
0.000723934
0.000726285
0.00073488
0.000772076
0.000921364
0.000484174
0.000469557
0.000812091
0.000720508
0.000716823
0.000717432
0.000718346
0.000718876
0.000719305
0.000719971
0.000720812
0.000721335
0.000721686
0.000721974
0.000722299
0.000723004
0.00072495
0.000732924
0.000767922
0.000916588
0.000495565
0.000469068
0.000809411
0.000721417
0.0007163
0.000716907
0.000717705
0.000718457
0.000719162
0.000719765
0.000720394
0.000720836
0.000721115
0.000721333
0.000721557
0.000722137
0.000724152
0.00073153
0.000763913
0.000911745
0.000510726
0.000467388
0.000807052
0.000722473
0.000716095
0.000716566
0.000717261
0.000717988
0.000718716
0.000719368
0.000719895
0.000720255
0.000720476
0.000720605
0.00072075
0.000721201
0.000722944
0.000729743
0.00076021
0.000907449
0.000531558
0.000465356
0.000803383
0.000723424
0.000716727
0.000716775
0.000717206
0.000717696
0.000718249
0.000718806
0.000719246
0.000719521
0.000719665
0.000719724
0.000719797
0.000720119
0.000721509
0.000727244
0.000754511
0.000900225
0.000560224
0.000464945
0.000806767
0.00073457
0.000725339
0.000722856
0.000721965
0.000720647
0.000719317
0.000718579
0.00071858
0.000718742
0.000718793
0.000718793
0.000718801
0.000719013
0.00072005
0.000724583
0.000747462
0.000884545
0.000578014
0.000470005
0.000893404
0.00084949
0.000827724
0.000814937
0.000809245
0.000799244
0.000784229
0.000766957
0.000752806
0.000747224
0.000745046
0.000743034
0.000741275
0.000739942
0.000739484
0.000741859
0.000758437
0.00087506
0.000583122
0.000485164
0.000513135
0.000550665
0.000576149
0.000584104
0.000589999
0.000592486
0.000590513
0.000586115
0.000578412
0.000563174
0.000540214
0.00051705
0.000495874
0.000477198
0.000461555
0.000449988
0.000445445
0.000462127
0.000590382
1.49025e-05
1.97173e-05
2.38052e-05
2.79375e-05
3.2348e-05
3.69041e-05
4.11998e-05
4.37317e-05
4.3589e-05
4.13023e-05
3.78605e-05
3.40819e-05
3.04912e-05
2.73722e-05
2.4861e-05
2.29957e-05
2.17585e-05
2.11644e-05
2.14778e-05
2.3191e-05
1.42618e-05
1.85986e-05
2.06441e-05
2.35993e-05
2.73463e-05
3.14453e-05
3.5211e-05
3.77828e-05
3.86622e-05
3.79051e-05
3.59384e-05
3.32941e-05
3.04834e-05
2.792e-05
2.58801e-05
2.44901e-05
2.37425e-05
2.38293e-05
2.50112e-05
2.62888e-05
1.31452e-05
1.73932e-05
1.79664e-05
1.91898e-05
2.10068e-05
2.31846e-05
2.53884e-05
2.71986e-05
2.82731e-05
2.84398e-05
2.77269e-05
2.63789e-05
2.47662e-05
2.3236e-05
2.20187e-05
2.12339e-05
2.09363e-05
2.17046e-05
2.4498e-05
2.98657e-05
1.34879e-05
1.71272e-05
1.65166e-05
1.61627e-05
1.63036e-05
1.69514e-05
1.80269e-05
1.92789e-05
2.06313e-05
2.321e-05
2.40051e-05
2.27753e-05
2.13761e-05
2.08188e-05
2.32831e-05
2.61089e-05
2.42283e-05
2.02899e-05
2.44273e-05
3.3384e-05
1.60109e-05
1.92875e-05
1.72909e-05
1.5462e-05
1.40584e-05
1.33948e-05
1.7806e-05
2.6271e-05
3.254e-05
3.59657e-05
3.63128e-05
3.44206e-05
3.24493e-05
3.24627e-05
3.50379e-05
3.72544e-05
3.24948e-05
1.98077e-05
2.52036e-05
3.64196e-05
2.07497e-05
2.30674e-05
2.03223e-05
1.7047e-05
1.51806e-05
2.15317e-05
2.74015e-05
3.27305e-05
3.69209e-05
3.91601e-05
3.89527e-05
3.67772e-05
3.51593e-05
3.64936e-05
4.00248e-05
4.24857e-05
3.59115e-05
2.02569e-05
2.65073e-05
3.89434e-05
2.45457e-05
2.36589e-05
1.9529e-05
2.37261e-05
2.67547e-05
3.03702e-05
3.43513e-05
3.82926e-05
4.1351e-05
4.26357e-05
4.14116e-05
3.76685e-05
3.50199e-05
3.6827e-05
4.13107e-05
4.35871e-05
3.53086e-05
2.12434e-05
2.80234e-05
4.09288e-05
2.54765e-05
2.36849e-05
2.88676e-05
3.17499e-05
3.73998e-05
4.23784e-05
4.63923e-05
4.94207e-05
5.11862e-05
5.08098e-05
4.76274e-05
4.06524e-05
3.57267e-05
3.71377e-05
4.18241e-05
4.23876e-05
3.20345e-05
2.24856e-05
2.94976e-05
4.23216e-05
2.39506e-05
1.86505e-05
2.63231e-05
3.41315e-05
4.44203e-05
5.39464e-05
6.03103e-05
6.32631e-05
6.37276e-05
6.16947e-05
5.55185e-05
4.41781e-05
3.71371e-05
3.81821e-05
4.16451e-05
3.93714e-05
2.72637e-05
2.376e-05
3.07178e-05
4.30425e-05
2.23269e-05
8.82886e-06
1.29541e-05
2.5821e-05
3.95904e-05
5.1626e-05
6.36506e-05
7.18738e-05
7.44476e-05
7.20268e-05
6.11591e-05
4.53673e-05
3.86084e-05
3.926e-05
4.01915e-05
3.48481e-05
2.30404e-05
2.48704e-05
3.15006e-05
4.30411e-05
2.11579e-05
6.23598e-06
3.34189e-06
1.65543e-05
3.11436e-05
4.30811e-05
5.58018e-05
7.20229e-05
7.92549e-05
7.47431e-05
5.87688e-05
4.42976e-05
3.8932e-05
3.87016e-05
3.69044e-05
2.93077e-05
2.21489e-05
2.56425e-05
3.17149e-05
4.23583e-05
2.02059e-05
4.39664e-06
3.3449e-06
1.24395e-05
2.67318e-05
3.69151e-05
4.69831e-05
6.76724e-05
7.20635e-05
6.41926e-05
5.0535e-05
4.05563e-05
3.71449e-05
3.59732e-05
3.19099e-05
2.38592e-05
2.23294e-05
2.59329e-05
3.13167e-05
4.11571e-05
1.91733e-05
3.08779e-06
3.72104e-06
1.04799e-05
2.35825e-05
3.07791e-05
3.66304e-05
4.40688e-05
5.11363e-05
4.7907e-05
4.03e-05
3.53484e-05
3.35901e-05
3.14612e-05
2.65336e-05
2.10363e-05
2.24587e-05
2.56731e-05
3.03735e-05
3.97059e-05
1.80083e-05
2.44979e-06
4.01299e-06
1.05116e-05
2.08934e-05
2.37497e-05
2.55059e-05
2.92051e-05
3.33482e-05
3.38876e-05
3.17435e-05
3.04034e-05
2.94362e-05
2.69754e-05
2.28563e-05
2.028e-05
2.22067e-05
2.48988e-05
2.90625e-05
3.8331e-05
1.75993e-05
2.18109e-06
4.03944e-06
1.26676e-05
1.81423e-05
1.85706e-05
1.92803e-05
2.03312e-05
2.30506e-05
2.53276e-05
2.64694e-05
2.72977e-05
2.72514e-05
2.57112e-05
2.30503e-05
2.09837e-05
2.15403e-05
2.3755e-05
2.76413e-05
3.73883e-05
1.74887e-05
2.29889e-06
4.53982e-06
1.63774e-05
2.01022e-05
1.83368e-05
1.74639e-05
1.79625e-05
1.99601e-05
2.24591e-05
2.50694e-05
2.75167e-05
2.91546e-05
2.95528e-05
2.88291e-05
2.75604e-05
2.61087e-05
2.41907e-05
2.64655e-05
3.7341e-05
1.74934e-05
2.68345e-06
4.40401e-06
1.71471e-05
2.0818e-05
1.94636e-05
1.87137e-05
1.8929e-05
2.0211e-05
2.2409e-05
2.55109e-05
2.90827e-05
3.24474e-05
3.50405e-05
3.66052e-05
3.71612e-05
3.66881e-05
3.53969e-05
3.6559e-05
3.93528e-05
1.82942e-05
4.39796e-06
4.35757e-06
1.52223e-05
1.89882e-05
1.86197e-05
1.84341e-05
1.87571e-05
1.97963e-05
2.1644e-05
2.44488e-05
2.81096e-05
3.21781e-05
3.6124e-05
3.95304e-05
4.22382e-05
4.43319e-05
4.67213e-05
5.39866e-05
5.54322e-05
2.23344e-05
1.30855e-05
1.13992e-05
1.86971e-05
2.12187e-05
2.00618e-05
1.88963e-05
1.8368e-05
1.87737e-05
2.02114e-05
2.25991e-05
2.57623e-05
2.95565e-05
3.36999e-05
3.78763e-05
4.19164e-05
4.60871e-05
5.23332e-05
6.98223e-05
8.70438e-05
3.65629e-05
4.99207e-05
5.83582e-05
6.21667e-05
5.85569e-05
5.05741e-05
4.39217e-05
3.98925e-05
3.75388e-05
3.66845e-05
3.74637e-05
4.03573e-05
4.47989e-05
4.98712e-05
5.51536e-05
6.03128e-05
6.5382e-05
7.14962e-05
8.3884e-05
0.000127457
1.1238e-05
1.8994e-05
2.46181e-05
3.00298e-05
3.60444e-05
4.27571e-05
4.95966e-05
5.28149e-05
5.13964e-05
4.70884e-05
4.16214e-05
3.60812e-05
3.10315e-05
2.66955e-05
2.31418e-05
2.03411e-05
1.82343e-05
1.68648e-05
1.65647e-05
1.80118e-05
9.97743e-06
1.3284e-05
1.59962e-05
1.98709e-05
2.45494e-05
2.96335e-05
3.39543e-05
3.63015e-05
3.64776e-05
3.48722e-05
3.20968e-05
2.87319e-05
2.53278e-05
2.23178e-05
1.99742e-05
1.83785e-05
1.75069e-05
1.76374e-05
1.89179e-05
2.14519e-05
8.27331e-06
1.20879e-05
1.39416e-05
1.62367e-05
1.82629e-05
2.00713e-05
2.15479e-05
2.24682e-05
2.27977e-05
2.24543e-05
2.14398e-05
1.98817e-05
1.80248e-05
1.61993e-05
1.47376e-05
1.38831e-05
1.37579e-05
1.49401e-05
1.80836e-05
2.435e-05
7.54735e-06
1.06138e-05
1.17923e-05
1.29787e-05
1.356e-05
1.35761e-05
1.36309e-05
1.39647e-05
1.44992e-05
1.49775e-05
1.51181e-05
1.47769e-05
1.40126e-05
1.30483e-05
1.21504e-05
1.16974e-05
1.16641e-05
1.32877e-05
1.77531e-05
2.70383e-05
7.29214e-06
9.50501e-06
9.92837e-06
1.0114e-05
9.71549e-06
9.33207e-06
9.40561e-06
1.01999e-05
1.13986e-05
1.25195e-05
1.31483e-05
1.31603e-05
1.28167e-05
1.24827e-05
1.23058e-05
1.21284e-05
1.14505e-05
1.29483e-05
1.82621e-05
2.91827e-05
7.16887e-06
8.60066e-06
8.48543e-06
8.07766e-06
7.76194e-06
7.92989e-06
8.61679e-06
9.69038e-06
1.09253e-05
1.19808e-05
1.25025e-05
1.24253e-05
1.22956e-05
1.26757e-05
1.32972e-05
1.31298e-05
1.17852e-05
1.33657e-05
1.91987e-05
3.0625e-05
7.0001e-06
7.7955e-06
7.68686e-06
8.31546e-06
8.95971e-06
9.21791e-06
9.28604e-06
9.83638e-06
1.06444e-05
1.1346e-05
1.15407e-05
1.1142e-05
1.11824e-05
1.25382e-05
1.39895e-05
1.35385e-05
1.2077e-05
1.41785e-05
2.01971e-05
3.13049e-05
6.71969e-06
7.09431e-06
7.4502e-06
9.1868e-06
1.08242e-05
1.17102e-05
1.19258e-05
1.18994e-05
1.53169e-05
1.61103e-05
1.5132e-05
1.00971e-05
1.02442e-05
1.2619e-05
1.42236e-05
1.33739e-05
1.23358e-05
1.51592e-05
2.10128e-05
3.1176e-05
6.33034e-06
6.5592e-06
7.37514e-06
9.51938e-06
1.19589e-05
1.36754e-05
1.47044e-05
1.99846e-05
2.18994e-05
2.15815e-05
1.8847e-05
1.30527e-05
1.23206e-05
1.30926e-05
1.39916e-05
1.2962e-05
1.27454e-05
1.61371e-05
2.14602e-05
3.01947e-05
5.83196e-06
6.31053e-06
7.74403e-06
9.25204e-06
1.17314e-05
1.34806e-05
1.48183e-05
2.29219e-05
2.68974e-05
2.67828e-05
2.16977e-05
1.45125e-05
1.46271e-05
1.50693e-05
1.346e-05
1.26514e-05
1.34283e-05
1.69342e-05
2.13614e-05
2.83863e-05
5.16724e-06
6.43302e-06
8.87086e-06
1.01451e-05
1.18741e-05
1.30529e-05
1.35155e-05
2.35853e-05
2.92365e-05
2.81075e-05
2.06393e-05
1.5126e-05
1.58398e-05
1.59672e-05
1.29105e-05
1.26812e-05
1.42935e-05
1.73594e-05
2.05945e-05
2.59096e-05
4.349e-06
6.68591e-06
1.00041e-05
1.25228e-05
1.34461e-05
1.36266e-05
1.31111e-05
2.09207e-05
2.51947e-05
2.2307e-05
1.69143e-05
1.50149e-05
1.55793e-05
1.29366e-05
1.26601e-05
1.31187e-05
1.5023e-05
1.72304e-05
1.916e-05
2.3054e-05
3.51565e-06
6.46141e-06
1.02903e-05
1.39895e-05
1.58955e-05
1.49525e-05
1.33188e-05
1.13798e-05
1.44047e-05
1.48255e-05
1.41158e-05
1.43697e-05
1.28253e-05
1.27164e-05
1.28738e-05
1.38255e-05
1.53325e-05
1.64495e-05
1.72269e-05
2.01507e-05
2.67169e-06
5.37498e-06
8.97443e-06
1.32423e-05
1.70577e-05
1.85861e-05
1.66465e-05
1.35616e-05
1.24732e-05
1.19408e-05
1.28805e-05
1.27608e-05
1.28527e-05
1.29739e-05
1.34098e-05
1.42682e-05
1.50032e-05
1.51123e-05
1.50959e-05
1.74625e-05
1.86373e-06
3.9707e-06
6.55763e-06
9.90065e-06
1.31193e-05
1.54135e-05
1.62612e-05
1.54467e-05
1.38056e-05
1.28378e-05
1.26642e-05
1.27644e-05
1.29656e-05
1.32468e-05
1.36342e-05
1.40436e-05
1.40455e-05
1.34913e-05
1.30779e-05
1.51176e-05
1.3666e-06
2.91362e-06
4.51502e-06
6.69815e-06
8.3251e-06
9.52404e-06
1.05366e-05
1.13056e-05
1.16005e-05
1.17527e-05
1.21248e-05
1.25773e-05
1.30137e-05
1.33714e-05
1.35712e-05
1.34779e-05
1.28704e-05
1.19266e-05
1.13842e-05
1.31237e-05
1.27904e-06
2.41592e-06
3.61243e-06
5.70135e-06
7.10642e-06
7.9155e-06
8.66305e-06
9.43288e-06
1.0201e-05
1.09964e-05
1.18629e-05
1.27252e-05
1.34657e-05
1.39671e-05
1.41025e-05
1.37489e-05
1.28288e-05
1.15842e-05
1.0664e-05
1.14955e-05
1.61984e-06
2.45834e-06
3.05459e-06
4.80722e-06
6.12104e-06
6.99529e-06
7.78698e-06
8.60946e-06
9.53108e-06
1.05783e-05
1.17402e-05
1.29395e-05
1.40409e-05
1.48919e-05
1.53522e-05
1.53328e-05
1.48378e-05
1.41153e-05
1.37941e-05
1.31577e-05
3.3375e-06
4.84395e-06
4.8117e-06
5.74464e-06
6.45183e-06
6.89159e-06
7.38436e-06
8.02139e-06
8.83997e-06
9.84342e-06
1.10013e-05
1.22546e-05
1.35106e-05
1.46552e-05
1.55939e-05
1.63074e-05
1.69313e-05
1.80289e-05
2.13882e-05
2.57191e-05
1.23464e-05
1.96541e-05
2.52923e-05
2.62605e-05
2.47545e-05
2.25389e-05
2.07147e-05
1.95914e-05
1.9136e-05
1.92879e-05
1.99969e-05
2.12056e-05
2.27892e-05
2.46218e-05
2.65933e-05
2.86063e-05
3.0668e-05
3.32074e-05
3.82145e-05
5.31786e-05
1.34399e-05
2.62381e-05
3.37032e-05
3.99333e-05
4.74037e-05
5.68701e-05
6.70836e-05
6.97859e-05
6.55031e-05
5.81927e-05
5.02794e-05
4.29163e-05
3.65697e-05
3.13121e-05
2.71202e-05
2.3882e-05
2.14722e-05
1.9876e-05
1.93118e-05
2.01114e-05
1.27431e-05
1.83106e-05
2.27347e-05
2.8142e-05
3.41019e-05
4.01886e-05
4.42769e-05
4.48388e-05
4.2753e-05
3.91067e-05
3.47758e-05
3.02892e-05
2.61627e-05
2.27751e-05
2.03094e-05
1.87232e-05
1.79907e-05
1.85653e-05
2.05624e-05
2.38737e-05
1.07568e-05
1.52779e-05
1.87018e-05
2.2594e-05
2.56626e-05
2.76179e-05
2.83464e-05
2.76757e-05
2.63691e-05
2.45285e-05
2.22534e-05
1.97302e-05
1.71606e-05
1.48899e-05
1.32888e-05
1.25642e-05
1.27942e-05
1.46387e-05
1.89467e-05
2.68732e-05
9.65824e-06
1.2398e-05
1.49551e-05
1.77529e-05
1.89904e-05
1.84618e-05
1.72571e-05
1.62209e-05
1.58056e-05
1.56937e-05
1.54073e-05
1.46728e-05
1.34619e-05
1.19777e-05
1.0643e-05
9.98962e-06
1.02902e-05
1.27837e-05
1.84277e-05
2.94085e-05
9.00605e-06
1.06861e-05
1.25936e-05
1.46546e-05
1.4513e-05
1.25872e-05
1.10338e-05
1.03788e-05
1.03615e-05
1.07157e-05
1.11019e-05
1.12163e-05
1.09362e-05
1.03297e-05
9.64924e-06
9.18044e-06
9.6664e-06
1.26341e-05
1.88533e-05
3.09116e-05
8.58485e-06
9.76927e-06
1.14669e-05
1.31158e-05
1.21606e-05
1.09414e-05
9.72119e-06
8.86571e-06
8.56764e-06
8.6885e-06
8.95803e-06
9.15849e-06
9.2652e-06
9.36904e-06
9.4402e-06
9.11384e-06
9.81082e-06
1.31925e-05
1.9501e-05
3.12846e-05
8.34017e-06
9.41067e-06
1.13141e-05
1.28287e-05
1.26958e-05
1.20452e-05
1.06805e-05
9.24761e-06
9.00089e-06
8.56423e-06
8.3876e-06
7.48539e-06
7.79315e-06
8.76511e-06
9.45029e-06
9.18447e-06
1.02856e-05
1.39386e-05
1.99281e-05
3.06201e-05
8.23037e-06
9.47921e-06
1.19282e-05
1.40842e-05
1.48587e-05
1.45352e-05
1.28996e-05
1.17953e-05
9.20289e-06
7.41446e-06
6.6259e-06
6.78116e-06
7.42357e-06
8.77097e-06
9.34993e-06
9.34534e-06
1.09469e-05
1.46645e-05
1.99696e-05
2.90471e-05
8.19023e-06
9.9528e-06
1.33769e-05
1.67302e-05
1.8207e-05
1.79282e-05
1.55938e-05
1.06728e-05
8.14295e-06
7.07727e-06
5.94326e-06
5.34413e-06
7.05059e-06
9.28284e-06
9.295e-06
9.69285e-06
1.17454e-05
1.52193e-05
1.94704e-05
2.66716e-05
8.10653e-06
1.0861e-05
1.57385e-05
2.0603e-05
2.28465e-05
2.24013e-05
1.66377e-05
9.62731e-06
7.99551e-06
8.20158e-06
6.71516e-06
5.23237e-06
7.39931e-06
9.52648e-06
9.43026e-06
1.03472e-05
1.26001e-05
1.5376e-05
1.8229e-05
2.36873e-05
7.79253e-06
1.21455e-05
1.86412e-05
2.52075e-05
2.8698e-05
2.8643e-05
1.80231e-05
9.06126e-06
8.2581e-06
9.75669e-06
7.68987e-06
6.27845e-06
7.89609e-06
9.35451e-06
1.0063e-05
1.13332e-05
1.33474e-05
1.48699e-05
1.62059e-05
2.04269e-05
6.9585e-06
1.31237e-05
2.07646e-05
2.84807e-05
3.44728e-05
3.61892e-05
2.50679e-05
1.12702e-05
6.44428e-06
7.45493e-06
6.62703e-06
7.19751e-06
9.40817e-06
1.01946e-05
1.13428e-05
1.25418e-05
1.36469e-05
1.35224e-05
1.36495e-05
1.72856e-05
5.27328e-06
1.21121e-05
1.97373e-05
2.84073e-05
3.75719e-05
4.28983e-05
4.1756e-05
2.51183e-05
1.1109e-05
8.00644e-06
7.70884e-06
1.17472e-05
1.24139e-05
1.38462e-05
1.31881e-05
1.3496e-05
1.30096e-05
1.14956e-05
1.1037e-05
1.45551e-05
3.7666e-06
7.92188e-06
1.33456e-05
1.9923e-05
2.83095e-05
3.79573e-05
4.63626e-05
4.82072e-05
3.90487e-05
2.90068e-05
2.29112e-05
1.95401e-05
1.96882e-05
1.6021e-05
1.42784e-05
1.31929e-05
1.13829e-05
9.30536e-06
8.79766e-06
1.23403e-05
2.76698e-06
5.07007e-06
8.02828e-06
1.1486e-05
1.55296e-05
2.0107e-05
2.49865e-05
2.93056e-05
3.14047e-05
3.05818e-05
2.65995e-05
2.16151e-05
1.78207e-05
1.51924e-05
1.33624e-05
1.15704e-05
9.34978e-06
7.42379e-06
7.13498e-06
1.05769e-05
2.17933e-06
3.81224e-06
5.38949e-06
7.52969e-06
9.8266e-06
1.19835e-05
1.40485e-05
1.61744e-05
1.83221e-05
1.92544e-05
1.82568e-05
1.62577e-05
1.44377e-05
1.29209e-05
1.14124e-05
9.58022e-06
7.54164e-06
6.0926e-06
6.07532e-06
9.11272e-06
1.93812e-06
3.27956e-06
4.1266e-06
5.30868e-06
6.51097e-06
7.79517e-06
9.20422e-06
1.06169e-05
1.18608e-05
1.25981e-05
1.26336e-05
1.21744e-05
1.15612e-05
1.08007e-05
9.73848e-06
8.32177e-06
6.80107e-06
5.7021e-06
5.60464e-06
7.77479e-06
2.13639e-06
3.23752e-06
3.59102e-06
4.4436e-06
5.3191e-06
6.14231e-06
6.99834e-06
7.889e-06
8.74877e-06
9.4616e-06
9.93851e-06
1.01817e-05
1.02193e-05
9.99935e-06
9.45475e-06
8.6181e-06
7.66837e-06
6.88601e-06
6.57879e-06
7.01755e-06
3.45858e-06
4.83109e-06
4.57225e-06
4.95316e-06
5.41618e-06
5.87083e-06
6.37766e-06
6.953e-06
7.58052e-06
8.21826e-06
8.81793e-06
9.34055e-06
9.74391e-06
9.97493e-06
1.00085e-05
9.88889e-06
9.74305e-06
9.81173e-06
1.0548e-05
1.14984e-05
9.72642e-06
1.49893e-05
1.82327e-05
1.87337e-05
1.80409e-05
1.70971e-05
1.63238e-05
1.58531e-05
1.56934e-05
1.58121e-05
1.61648e-05
1.67013e-05
1.73684e-05
1.81194e-05
1.891e-05
1.96957e-05
2.04621e-05
2.13664e-05
2.31714e-05
2.81164e-05
1.63295e-05
3.56086e-05
4.39285e-05
5.04392e-05
6.01437e-05
7.38465e-05
8.85981e-05
8.85469e-05
7.94983e-05
6.83686e-05
5.78145e-05
4.87175e-05
4.12876e-05
3.53266e-05
3.07057e-05
2.7197e-05
2.46005e-05
2.28416e-05
2.20013e-05
2.19841e-05
1.71439e-05
2.74265e-05
3.40046e-05
4.09891e-05
4.87202e-05
5.62706e-05
6.10482e-05
5.85968e-05
5.25852e-05
4.56667e-05
3.90637e-05
3.29946e-05
2.78754e-05
2.39849e-05
2.12695e-05
1.94551e-05
1.86508e-05
1.9577e-05
2.23185e-05
2.59069e-05
1.48119e-05
2.15542e-05
2.68448e-05
3.23927e-05
3.73429e-05
4.09777e-05
4.17527e-05
3.82153e-05
3.3662e-05
2.87259e-05
2.39496e-05
1.98419e-05
1.63362e-05
1.36318e-05
1.20424e-05
1.16192e-05
1.21067e-05
1.44555e-05
1.98374e-05
2.86323e-05
1.30684e-05
1.68928e-05
2.13938e-05
2.6006e-05
2.94577e-05
3.00051e-05
2.70893e-05
2.27708e-05
1.96277e-05
1.79609e-05
1.68666e-05
1.55645e-05
1.37763e-05
1.15802e-05
9.6749e-06
8.89103e-06
9.35149e-06
1.21766e-05
1.87818e-05
3.04603e-05
1.18064e-05
1.43684e-05
1.82778e-05
2.26841e-05
2.53366e-05
2.26619e-05
1.73712e-05
1.38926e-05
1.20539e-05
1.14739e-05
1.13896e-05
1.12313e-05
1.067e-05
9.70916e-06
8.65237e-06
7.95419e-06
8.80931e-06
1.18837e-05
1.86214e-05
3.07262e-05
1.09739e-05
1.31971e-05
1.70367e-05
2.19699e-05
2.35766e-05
1.88894e-05
1.47239e-05
1.17849e-05
9.88608e-06
9.00854e-06
8.74844e-06
8.76378e-06
8.7432e-06
8.59488e-06
8.23254e-06
7.78195e-06
9.04222e-06
1.21838e-05
1.84417e-05
2.95586e-05
1.0594e-05
1.31939e-05
1.75562e-05
2.34005e-05
2.36811e-05
1.99792e-05
1.61161e-05
1.31748e-05
1.01739e-05
8.48227e-06
7.59396e-06
7.33731e-06
7.22249e-06
7.88035e-06
7.93489e-06
7.87726e-06
9.52128e-06
1.25723e-05
1.79186e-05
2.73772e-05
1.06828e-05
1.43537e-05
1.97716e-05
2.61537e-05
2.66105e-05
2.4804e-05
1.96412e-05
1.45145e-05
1.06797e-05
7.56718e-06
5.72485e-06
5.41608e-06
6.36507e-06
7.682e-06
7.75421e-06
8.20537e-06
1.0171e-05
1.28706e-05
1.70085e-05
2.45565e-05
1.12243e-05
1.66844e-05
2.36451e-05
3.04259e-05
3.28353e-05
3.44042e-05
2.60544e-05
1.53048e-05
8.92953e-06
5.93955e-06
4.42796e-06
4.10522e-06
5.71329e-06
7.60383e-06
7.89673e-06
8.85033e-06
1.09039e-05
1.27593e-05
1.5442e-05
2.13059e-05
1.21373e-05
2.00453e-05
2.8855e-05
3.68859e-05
4.28289e-05
5.20446e-05
3.4483e-05
1.8668e-05
5.50185e-06
5.00246e-06
4.8112e-06
3.81866e-06
5.72329e-06
7.58186e-06
8.56436e-06
9.87893e-06
1.15007e-05
1.18669e-05
1.30555e-05
1.79361e-05
1.31459e-05
2.37863e-05
3.47177e-05
4.55361e-05
5.80154e-05
8.24678e-05
5.17362e-05
5.69848e-05
5.36476e-06
7.45356e-06
1.7094e-05
6.23077e-06
8.7836e-06
1.01546e-05
1.12726e-05
1.16743e-05
1.01364e-05
1.02643e-05
1.48371e-05
1.32967e-05
2.59824e-05
3.89475e-05
5.38214e-05
7.37565e-05
0.000102996
7.72197e-05
0.000185736
7.87232e-05
1.59005e-05
0.000614886
0.921029
1.52511e-05
1.29994e-05
1.30004e-05
1.2876e-05
1.10348e-05
7.99162e-06
7.7262e-06
1.22958e-05
9.27948e-06
2.32538e-05
3.58941e-05
5.24393e-05
7.46373e-05
9.86227e-05
7.53447e-05
9.9248e-05
0.000108439
0.000522866
0.00100212
5.74069e-05
3.29706e-05
2.02463e-05
1.59244e-05
1.29465e-05
9.16749e-06
6.08346e-06
5.84235e-06
1.03699e-05
4.25687e-06
1.13813e-05
1.9359e-05
2.8943e-05
4.24223e-05
6.02587e-05
8.0693e-05
8.73755e-05
8.81092e-05
8.78339e-05
8.14378e-05
6.84084e-05
4.07376e-05
2.0567e-05
1.46683e-05
1.05559e-05
7.00632e-06
4.67527e-06
4.58548e-06
8.96242e-06
3.36936e-06
5.15369e-06
8.32187e-06
1.18931e-05
1.63854e-05
2.20834e-05
2.86711e-05
3.48565e-05
3.9798e-05
4.14058e-05
3.57678e-05
2.31416e-05
1.70332e-05
1.40495e-05
1.0843e-05
7.77541e-06
5.26031e-06
3.67775e-06
3.80046e-06
7.90513e-06
3.0083e-06
4.04415e-06
5.24612e-06
6.91479e-06
8.81806e-06
1.08406e-05
1.32092e-05
1.61491e-05
1.85973e-05
1.92176e-05
1.67501e-05
1.27207e-05
1.08097e-05
9.40561e-06
7.59424e-06
5.61962e-06
3.98143e-06
3.03238e-06
3.40744e-06
7.03037e-06
2.83094e-06
3.78971e-06
4.34662e-06
5.15753e-06
6.13233e-06
7.21452e-06
8.475e-06
9.74127e-06
1.06886e-05
1.0874e-05
1.01256e-05
8.95191e-06
8.09055e-06
7.21811e-06
6.05554e-06
4.74387e-06
3.62131e-06
3.03091e-06
3.44842e-06
6.16691e-06
3.00415e-06
3.90129e-06
4.03193e-06
4.45601e-06
5.05253e-06
5.7189e-06
6.42806e-06
7.11892e-06
7.66997e-06
7.94486e-06
7.8977e-06
7.64521e-06
7.33097e-06
6.86341e-06
6.18106e-06
5.37913e-06
4.65037e-06
4.22063e-06
4.33544e-06
5.29847e-06
4.11415e-06
5.25069e-06
4.95925e-06
4.95022e-06
5.24497e-06
5.59088e-06
5.97574e-06
6.38286e-06
6.77237e-06
7.09692e-06
7.32929e-06
7.47426e-06
7.53315e-06
7.46702e-06
7.27221e-06
7.00476e-06
6.75691e-06
6.6369e-06
6.74178e-06
6.62062e-06
8.5783e-06
1.25784e-05
1.4986e-05
1.57034e-05
1.5427e-05
1.49505e-05
1.45289e-05
1.42448e-05
1.41112e-05
1.41103e-05
1.42126e-05
1.43846e-05
1.45954e-05
1.48196e-05
1.50263e-05
1.51753e-05
1.52238e-05
1.51977e-05
1.53498e-05
1.62477e-05
2.0357e-05
4.61209e-05
5.32241e-05
6.03201e-05
7.4257e-05
9.49814e-05
0.000116639
0.000110581
9.40456e-05
7.78772e-05
6.42165e-05
5.32564e-05
4.47113e-05
3.82347e-05
3.34649e-05
2.98866e-05
2.72387e-05
2.53935e-05
2.42831e-05
2.33706e-05
2.47531e-05
3.92745e-05
4.51599e-05
5.32076e-05
6.57291e-05
7.94028e-05
9.00932e-05
8.23532e-05
6.91467e-05
5.64677e-05
4.58393e-05
3.7354e-05
3.08429e-05
2.61624e-05
2.28725e-05
2.05035e-05
1.9419e-05
2.05076e-05
2.3887e-05
2.71795e-05
2.13874e-05
2.94102e-05
3.3998e-05
4.08575e-05
5.0974e-05
6.23829e-05
6.89836e-05
5.92176e-05
4.6759e-05
3.63921e-05
2.8467e-05
2.23953e-05
1.77227e-05
1.40903e-05
1.1887e-05
1.12479e-05
1.15819e-05
1.414e-05
2.03622e-05
2.89895e-05
1.78135e-05
2.36251e-05
2.75886e-05
3.31003e-05
4.10013e-05
4.98398e-05
5.05822e-05
3.84303e-05
2.78614e-05
2.14706e-05
1.7492e-05
1.46217e-05
1.21759e-05
9.90681e-06
8.44412e-06
7.72599e-06
8.20364e-06
1.10463e-05
1.83071e-05
2.93615e-05
1.52849e-05
2.09465e-05
2.42934e-05
2.87894e-05
3.5191e-05
4.07278e-05
3.27019e-05
2.1316e-05
1.56682e-05
1.2879e-05
1.17893e-05
1.09734e-05
9.66015e-06
8.13649e-06
6.93314e-06
6.44825e-06
7.16083e-06
1.0025e-05
1.69128e-05
2.79205e-05
1.36425e-05
1.99524e-05
2.28177e-05
2.66358e-05
3.19485e-05
3.3248e-05
2.31729e-05
1.63491e-05
1.20633e-05
9.91423e-06
9.02111e-06
8.61533e-06
8.15085e-06
7.48264e-06
6.61907e-06
6.2602e-06
7.22506e-06
9.58374e-06
1.54676e-05
2.51633e-05
1.28925e-05
2.05813e-05
2.34979e-05
2.73491e-05
3.23298e-05
3.25007e-05
2.60378e-05
1.97827e-05
1.34516e-05
9.96873e-06
8.23249e-06
7.52545e-06
7.12905e-06
7.03106e-06
6.43156e-06
6.42648e-06
7.55863e-06
9.37492e-06
1.39317e-05
2.19059e-05
1.30547e-05
2.30897e-05
2.69602e-05
3.20574e-05
3.83425e-05
4.25808e-05
3.3271e-05
2.44692e-05
1.57837e-05
9.54199e-06
6.63693e-06
5.74104e-06
6.06762e-06
6.96241e-06
6.45472e-06
6.87007e-06
8.07486e-06
9.11053e-06
1.22396e-05
1.86142e-05
1.41353e-05
2.76803e-05
3.37865e-05
4.21376e-05
5.34723e-05
6.82913e-05
5.22913e-05
6.00981e-05
6.30655e-05
0.00084661
4.33206e-05
6.26027e-06
5.45411e-06
6.74139e-06
6.8363e-06
7.59946e-06
8.36514e-06
8.217e-06
9.96673e-06
1.53845e-05
1.61245e-05
3.41645e-05
4.42879e-05
5.92031e-05
8.20683e-05
0.000121808
0.00011761
0.000339504
0.0085323
0.00737006
0.583855
3.61946
0.000290465
7.17578e-06
7.95001e-06
8.64906e-06
8.59728e-06
6.92854e-06
7.51247e-06
1.2511e-05
1.8888e-05
4.11574e-05
5.7348e-05
8.26514e-05
0.000124362
0.000202391
0.000276675
0.00104372
0.00854094
0.0161022
0.000685574
0.0117897
0.000190672
1.04502e-05
1.04647e-05
1.08735e-05
9.56291e-06
5.9647e-06
5.67618e-06
1.02494e-05
2.16555e-05
4.47066e-05
6.7376e-05
0.000102866
0.00015954
0.000252552
0.000397588
0.00132923
0.00575214
0.0015927
0.00054178
0.00128877
0.000395233
2.07327e-05
1.55852e-05
1.39853e-05
9.01271e-06
5.31888e-06
4.61017e-06
8.60438e-06
1.87459e-05
3.87288e-05
6.23345e-05
9.84201e-05
0.000153259
0.00023077
0.000331923
0.000424708
0.000876207
0.00166058
0.00126706
0.00124057
9.1952e-05
3.22643e-05
1.73044e-05
1.18386e-05
7.37559e-06
4.77704e-06
3.98634e-06
7.45742e-06
4.66507e-06
1.5038e-05
2.99227e-05
4.412e-05
6.53157e-05
9.57005e-05
0.000134726
0.000216925
0.000262883
0.000331534
0.00039927
0.000313675
3.70458e-05
1.66748e-05
1.262e-05
8.76087e-06
5.94262e-06
4.14061e-06
3.49511e-06
6.67967e-06
3.84376e-06
4.85427e-06
8.46924e-06
1.33679e-05
1.89843e-05
2.71552e-05
3.97597e-05
5.42687e-05
7.3059e-05
8.88327e-05
8.43002e-05
3.27047e-05
1.21182e-05
1.05597e-05
8.74026e-06
6.5923e-06
4.80111e-06
3.43255e-06
3.03073e-06
6.12719e-06
3.70659e-06
3.9938e-06
4.80873e-06
6.13917e-06
8.07904e-06
1.07761e-05
1.5301e-05
2.13638e-05
2.78249e-05
3.18274e-05
2.74562e-05
1.19898e-05
8.09762e-06
7.2852e-06
6.25829e-06
4.98802e-06
3.77315e-06
2.7906e-06
2.65965e-06
5.68186e-06
3.63418e-06
3.9806e-06
4.29761e-06
4.77761e-06
5.47325e-06
6.52453e-06
8.19844e-06
1.03761e-05
1.24214e-05
1.30577e-05
1.08433e-05
7.11636e-06
6.02657e-06
5.45383e-06
4.72285e-06
3.85792e-06
3.03436e-06
2.47593e-06
2.65742e-06
5.16634e-06
3.80931e-06
4.25627e-06
4.26689e-06
4.44967e-06
4.79722e-06
5.28604e-06
5.91687e-06
6.6354e-06
7.21993e-06
7.33201e-06
6.82591e-06
6.13154e-06
5.71305e-06
5.27989e-06
4.71605e-06
4.0806e-06
3.50898e-06
3.19114e-06
3.3801e-06
4.52649e-06
4.6889e-06
5.4632e-06
5.2464e-06
5.08078e-06
5.13088e-06
5.35246e-06
5.63486e-06
5.9315e-06
6.18429e-06
6.32852e-06
6.34634e-06
6.29316e-06
6.20959e-06
6.05322e-06
5.81951e-06
5.55083e-06
5.30725e-06
5.14781e-06
5.07703e-06
4.67309e-06
7.73093e-06
1.08439e-05
1.27427e-05
1.35577e-05
1.37018e-05
1.35098e-05
1.32568e-05
1.3037e-05
1.28731e-05
1.27608e-05
1.26838e-05
1.262e-05
1.2548e-05
1.24491e-05
1.22926e-05
1.20345e-05
1.16247e-05
1.10523e-05
1.04101e-05
9.83179e-06
2.84933e-05
5.97578e-05
6.33279e-05
7.32011e-05
9.29326e-05
0.000122029
0.000153324
0.000138521
0.000110734
8.79688e-05
7.06217e-05
5.76103e-05
4.7889e-05
4.06655e-05
3.53434e-05
3.15451e-05
2.89955e-05
2.71723e-05
2.58703e-05
2.41097e-05
3.52647e-05
4.80831e-05
5.28353e-05
6.32857e-05
8.09513e-05
0.000106695
0.00013633
0.000123542
9.90056e-05
7.63993e-05
5.88547e-05
4.59559e-05
3.67122e-05
3.01272e-05
2.54062e-05
2.23408e-05
2.06926e-05
2.15761e-05
2.53069e-05
2.74378e-05
2.79775e-05
3.35726e-05
3.86008e-05
5.15491e-05
6.87128e-05
9.40288e-05
0.000120879
0.000103799
7.69238e-05
5.44791e-05
3.85888e-05
2.78771e-05
2.10899e-05
1.71477e-05