/*--------------------------------*- C++ -*----------------------------------*\
| =========                 |                                                 |
| \\      /  F ield         | OpenFOAM: The Open Source CFD Toolbox           |
|  \\    /   O peration     | Version:                                        |
|   \\  /    A nd           | Website:  www.openfoam.com                      |
|    \\/     M anipulation  |                                                 |
\*---------------------------------------------------------------------------*/
FoamFile
{
    version     2.0;
    format      ascii;
    class       volScalarField;
    location    "1000";
    object      k;
}
// * * * * * * * * * * * * * * * * * * * * * * * * * * * * * * * * * * * * * //

dimensions      [0 2 -2 0 0 0 0];


internalField   nonuniform List<scalar> 
206582
(
0.000748138
0.000770127
0.000783518
0.000790022
0.000789733
0.000784445
0.000774944
0.00076304
0.000751054
0.000741156
0.000734782
0.000732746
0.000735506
0.000743471
0.000756699
0.00077456
0.000795223
0.000813756
0.000823986
0.000806733
0.000772386
0.000330637
0.000281012
0.00028506
0.00029697
0.000310096
0.00032209
0.000331162
0.000336517
0.000338475
0.000338005
0.000336134
0.000333899
0.000332219
0.000331538
0.000331508
0.000331094
0.000328775
0.000345787
0.000830751
0.000778256
0.000280076
0.000205897
0.000198429
0.00020202
0.000207887
0.000214028
0.00021943
0.00022345
0.000225875
0.000226902
0.000226667
0.000225501
0.000224007
0.000222587
0.00022116
0.000219516
0.000219734
0.000262485
0.000859108
0.000787969
0.00028248
0.000194963
0.000181378
0.000181133
0.000183693
0.000186838
0.000189791
0.0001921
0.000193546
0.000194437
0.000194641
0.000194096
0.000193176
0.000192121
0.000191095
0.000190679
0.000195715
0.000256201
0.000882016
0.000809339
0.000296538
0.000197314
0.000179613
0.000177743
0.000179145
0.000180753
0.000181891
0.00018276
0.000183352
0.000183798
0.000183927
0.000183609
0.000183049
0.000182489
0.000182186
0.000183285
0.000192625
0.00026556
0.000900139
0.000847531
0.00031605
0.000203386
0.000181939
0.000178806
0.000178712
0.000179177
0.000179614
0.000179921
0.000180094
0.000180226
0.000180218
0.000179992
0.000179697
0.000179525
0.000179839
0.000182185
0.000194818
0.000276773
0.000914327
0.00089651
0.000334063
0.000209087
0.000183878
0.000179139
0.000178526
0.000178706
0.00017894
0.000179061
0.000179058
0.000179022
0.000178933
0.000178785
0.000178681
0.000178796
0.000179573
0.000182882
0.000197959
0.000286438
0.00092538
0.000948893
0.000335573
0.000207777
0.000183546
0.000178981
0.000178362
0.000178527
0.000178733
0.0001788
0.000178735
0.000178626
0.000178513
0.000178446
0.000178491
0.000178801
0.000179908
0.000183923
0.000200746
0.000293772
0.000934145
0.000966177
0.000309246
0.000199706
0.000181671
0.000178582
0.000178308
0.000178494
0.000178672
0.000178742
0.000178697
0.000178542
0.00017842
0.000178431
0.000178572
0.000179003
0.000180317
0.000184783
0.000202747
0.000298657
0.000941507
0.000955509
0.000285495
0.000192962
0.000179778
0.000177966
0.000178002
0.00017821
0.000178366
0.000178533
0.000178676
0.000178545
0.000178429
0.000178495
0.000178688
0.000179182
0.000180594
0.000185232
0.0002038
0.000301169
0.000948435
0.000947695
0.000267257
0.00018788
0.000178529
0.000177447
0.000177514
0.000177447
0.000177484
0.000177935
0.000178458
0.000178444
0.000178411
0.000178519
0.000178736
0.000179241
0.000180644
0.000185174
0.00020386
0.000301473
0.000955931
0.000945942
0.000251755
0.000182886
0.000177542
0.000177129
0.000177278
0.00017714
0.000176927
0.000177485
0.000178163
0.000178278
0.000178343
0.000178474
0.00017868
0.000179146
0.000180437
0.000184747
0.000202984
0.000299838
0.000964966
0.000947126
0.000240732
0.000179993
0.000176938
0.000176911
0.000177151
0.000177176
0.000177185
0.000177478
0.000177943
0.000178126
0.00017823
0.000178353
0.000178525
0.000178912
0.000180003
0.000184037
0.000201351
0.00029667
0.000976502
0.000949026
0.000234737
0.000178947
0.000176608
0.000176724
0.000177007
0.000177186
0.000177338
0.000177553
0.000177811
0.00017797
0.000178079
0.000178172
0.000178296
0.000178601
0.000179536
0.000183175
0.000199246
0.000292523
0.000991612
0.000950046
0.00023223
0.000179114
0.000176439
0.000176571
0.000176822
0.000177063
0.000177285
0.000177474
0.000177668
0.000177802
0.000177889
0.00017796
0.000178051
0.000178303
0.000179156
0.000182345
0.000197009
0.000287961
0.00101178
0.000948748
0.000230345
0.000179422
0.00017638
0.000176476
0.000176692
0.000176919
0.000177144
0.000177345
0.000177506
0.000177615
0.000177683
0.000177728
0.00017779
0.000177986
0.000178699
0.00018149
0.000194854
0.000283324
0.0010393
0.000946162
0.000227766
0.000179744
0.000176662
0.000176602
0.000176719
0.000176849
0.000177003
0.000177166
0.0001773
0.000177384
0.000177429
0.000177452
0.000177488
0.000177629
0.000178191
0.00018051
0.000192288
0.00027733
0.00107568
0.000945281
0.000228604
0.000184714
0.000180543
0.000179423
0.000179029
0.000178393
0.000177692
0.000177215
0.000177096
0.000177145
0.000177162
0.000177165
0.000177177
0.000177271
0.000177687
0.000179494
0.000189186
0.000266268
0.00109453
0.000951437
0.000284908
0.000251207
0.000238573
0.000231779
0.000229579
0.000224751
0.000216695
0.000206829
0.000197696
0.000192353
0.000191128
0.000190151
0.000189299
0.000188637
0.000188344
0.000189213
0.000196218
0.000260746
0.00109895
0.000971084
0.00100762
0.00105531
0.00108873
0.0010987
0.00110584
0.00110731
0.00110393
0.00109838
0.00109009
0.00107532
0.0010491
0.00101937
0.000991053
0.000965671
0.000944083
0.000927826
0.000920973
0.000942502
0.00110714
9.71875e-05
0.0001168
0.000132116
0.000146574
0.000161452
0.000176626
0.000190936
0.000199441
0.000199549
0.000192874
0.000182234
0.000170011
0.000157862
0.000146814
0.000137501
0.000130252
0.00012518
0.000122437
0.000122827
0.000127876
9.43725e-05
0.00011148
0.000125851
0.000141008
0.000157198
0.000173015
0.000186094
0.000193647
0.000194214
0.00018818
0.000177231
0.000163478
0.000149065
0.000135835
0.000125099
0.000117549
0.000113401
0.000113762
0.000119025
0.00013806
8.92729e-05
0.000101667
0.000108789
0.000117219
0.000125869
0.000134271
0.000141519
0.000146404
0.000147939
0.000145594
0.000139582
0.000130916
0.000121136
0.000111779
0.000104048
9.88275e-05
9.69412e-05
0.000101328
0.000114545
0.000149943
9.02337e-05
9.26701e-05
9.17715e-05
9.2029e-05
9.33917e-05
9.56149e-05
9.85958e-05
0.000101429
0.000102407
0.000100194
9.61069e-05
9.14993e-05
8.72541e-05
8.37088e-05
8.07617e-05
7.96071e-05
8.2507e-05
9.26741e-05
0.000114052
0.000161649
9.93273e-05
9.21789e-05
8.35562e-05
7.59724e-05
6.97652e-05
6.47161e-05
5.98526e-05
5.69419e-05
5.56541e-05
5.43473e-05
5.27329e-05
5.1351e-05
5.14408e-05
5.37856e-05
5.74408e-05
6.23942e-05
7.20979e-05
9.02481e-05
0.000117201
0.000171504
0.000114562
9.24841e-05
7.66152e-05
6.66342e-05
5.1012e-05
3.71573e-05
2.97981e-05
2.77422e-05
2.80683e-05
2.86599e-05
2.87197e-05
2.84674e-05
2.98502e-05
3.49561e-05
4.2583e-05
5.25784e-05
6.888e-05
9.19994e-05
0.000122114
0.000179514
0.000125854
7.52442e-05
3.81731e-05
2.21363e-05
1.8693e-05
1.79524e-05
1.83263e-05
1.94827e-05
2.08166e-05
2.16926e-05
2.16408e-05
2.0663e-05
2.1301e-05
2.68446e-05
3.64644e-05
5.04748e-05
7.08016e-05
9.62697e-05
0.000127511
0.000185686
0.000128755
5.78931e-05
2.49758e-05
1.7032e-05
1.73308e-05
1.90529e-05
2.06495e-05
2.19676e-05
2.29043e-05
2.31018e-05
2.21272e-05
1.96067e-05
1.91753e-05
2.4962e-05
3.64622e-05
5.31448e-05
7.59383e-05
0.000101699
0.000132515
0.00018996
0.000124798
4.65249e-05
1.80812e-05
1.58979e-05
1.92757e-05
2.30847e-05
2.58159e-05
2.71873e-05
2.76538e-05
2.71633e-05
2.48435e-05
2.05042e-05
1.97502e-05
2.658e-05
3.98814e-05
5.87777e-05
8.26258e-05
0.000107226
0.000136462
0.000192206
0.000120262
4.13296e-05
1.22153e-05
1.20226e-05
1.70662e-05
2.1839e-05
2.6787e-05
3.0406e-05
3.18192e-05
3.11534e-05
2.69099e-05
2.11993e-05
2.16644e-05
3.024e-05
4.55648e-05
6.60979e-05
8.93858e-05
0.000111968
0.000138765
0.00019234
0.000117108
3.06765e-05
1.16023e-05
8.72196e-06
1.39729e-05
1.86271e-05
2.3853e-05
3.06495e-05
3.37381e-05
3.20825e-05
2.60064e-05
2.16709e-05
2.43464e-05
3.52705e-05
5.27319e-05
7.39407e-05
9.52411e-05
0.000115174
0.00013895
0.000190496
0.000114863
2.09656e-05
1.21014e-05
7.8572e-06
1.25302e-05
1.63238e-05
2.05421e-05
2.88412e-05
3.08165e-05
2.79551e-05
2.33259e-05
2.20401e-05
2.78662e-05
4.14983e-05
6.05212e-05
8.10073e-05
9.92584e-05
0.000116243
0.000136795
0.000187125
0.00011264
1.26089e-05
1.10391e-05
9.78468e-06
1.1883e-05
1.40783e-05
1.62862e-05
1.95748e-05
2.26193e-05
2.19159e-05
2.06131e-05
2.33017e-05
3.27399e-05
4.8722e-05
6.79451e-05
8.62331e-05
0.000100967
0.000114833
0.000132453
0.000182991
0.000109247
6.92928e-06
7.48308e-06
1.06404e-05
1.31085e-05
1.2336e-05
1.22843e-05
1.36511e-05
1.58632e-05
1.73986e-05
1.98668e-05
2.65098e-05
3.89617e-05
5.59596e-05
7.3748e-05
8.86302e-05
0.000100031
0.000110973
0.000126501
0.00017908
0.000107652
3.93051e-06
3.83899e-06
8.206e-06
1.11563e-05
1.24928e-05
1.2355e-05
1.1453e-05
1.29505e-05
1.60679e-05
2.13379e-05
3.06125e-05
4.43334e-05
6.05417e-05
7.57715e-05
8.75239e-05
9.6304e-05
0.000105088
0.000119838
0.000176543
0.000107159
3.55538e-06
3.33004e-06
8.31566e-06
9.67037e-06
9.09521e-06
9.12755e-06
1.00429e-05
1.21136e-05
1.5807e-05
2.20202e-05
3.1635e-05
4.43597e-05
5.82101e-05
7.05673e-05
8.01866e-05
8.83166e-05
9.76467e-05
0.000113499
0.000176956
0.00010694
4.96185e-06
3.33601e-06
8.54875e-06
9.92448e-06
9.44538e-06
9.36363e-06
9.95212e-06
1.15205e-05
1.455e-05
1.97197e-05
2.74279e-05
3.72365e-05
4.76787e-05
5.71148e-05
6.5142e-05
7.31562e-05
8.3936e-05
0.000105585
0.00018484
0.000109919
1.16119e-05
4.24773e-06
7.76404e-06
9.23557e-06
9.13923e-06
9.17683e-06
9.57512e-06
1.05809e-05
1.25115e-05
1.57729e-05
2.05943e-05
2.673e-05
3.34086e-05
3.98163e-05
4.59082e-05
5.28791e-05
6.41011e-05
9.44221e-05
0.000234466
0.000125101
4.44971e-05
2.33078e-05
1.42017e-05
1.40879e-05
1.29978e-05
1.20664e-05
1.16158e-05
1.18114e-05
1.27835e-05
1.46217e-05
1.73262e-05
2.07561e-05
2.46095e-05
2.8592e-05
3.27728e-05
3.80879e-05
4.84502e-05
8.66483e-05
0.000313784
0.00017335
0.000212009
0.000233203
0.000240532
0.000230669
0.000208267
0.000190087
0.000178372
0.000170953
0.000167729
0.000169052
0.000175848
0.00018921
0.00020461
0.000220122
0.000234852
0.000248962
0.000265489
0.000297315
0.000398329
7.9752e-05
0.00011266
0.000133529
0.0001522
0.000172342
0.000194356
0.000216068
0.000226071
0.000222517
0.000210312
0.000194025
0.000176633
0.000159881
0.000144653
0.000131426
0.000120378
0.000111553
0.000105311
0.000102938
0.000106983
7.43154e-05
0.000137573
0.000165235
0.000186888
0.000206651
0.000224994
0.000238349
0.00024247
0.00023656
0.000222415
0.000203063
0.00018151
0.000160594
0.00014256
0.000128802
0.000119738
0.00011525
0.000116626
0.000123091
0.000118878
6.61448e-05
0.000119765
0.000139808
0.000156769
0.000167053
0.000173785
0.000178046
0.000179613
0.000177931
0.000172123
0.00016211
0.0001488
0.000133936
0.000119786
0.000108485
0.000101519
9.97993e-05
0.000106853
0.000124209
0.000128797
6.22482e-05
9.75169e-05
0.000108247
0.000117363
0.000123241
0.000124836
0.00012596
0.000127969
0.000130098
0.000130515
0.00012783
0.000121897
0.000113683
0.000104883
9.69961e-05
9.15916e-05
9.11088e-05
0.000101277
0.000126308
0.000138067
6.06345e-05
8.25493e-05
8.40775e-05
8.24132e-05
7.93074e-05
7.93631e-05
7.91659e-05
7.94046e-05
8.08133e-05
8.26433e-05
8.37296e-05
8.35765e-05
8.26306e-05
8.17433e-05
8.10284e-05
8.12409e-05
8.64968e-05
0.000101904
0.000129546
0.00014549
5.97389e-05
7.2533e-05
6.52512e-05
5.16974e-05
4.01648e-05
3.40682e-05
3.28683e-05
3.42363e-05
3.72389e-05
4.08621e-05
4.43067e-05
4.75184e-05
5.15816e-05
5.79809e-05
6.58287e-05
7.43047e-05
8.62524e-05
0.000105463
0.00013284
0.000150494
5.87398e-05
6.62812e-05
5.407e-05
3.55549e-05
2.38314e-05
1.67421e-05
1.39089e-05
1.40056e-05
1.57659e-05
1.83215e-05
2.11268e-05
2.43519e-05
3.00522e-05
4.16214e-05
5.76978e-05
7.28578e-05
8.91987e-05
0.00010996
0.00013539
0.0001529
5.73103e-05
6.25586e-05
5.16549e-05
3.34462e-05
2.18189e-05
1.52397e-05
1.17412e-05
1.04644e-05
1.21656e-05
1.3527e-05
1.45138e-05
1.34551e-05
1.9191e-05
3.57188e-05
5.73499e-05
7.56034e-05
9.41488e-05
0.000114461
0.000136863
0.000152606
5.53784e-05
5.98772e-05
5.59697e-05
3.81482e-05
2.48733e-05
1.6857e-05
1.2767e-05
1.36259e-05
1.39748e-05
1.39335e-05
1.2791e-05
1.13769e-05
1.67729e-05
3.85585e-05
6.17222e-05
8.12581e-05
0.000100072
0.000118531
0.000136977
0.000149488
5.27752e-05
5.84331e-05
6.4994e-05
4.99898e-05
3.33124e-05
2.09059e-05
1.35146e-05
1.49757e-05
1.64445e-05
1.65297e-05
1.3971e-05
1.08807e-05
1.83853e-05
4.17463e-05
6.93714e-05
8.87125e-05
0.00010613
0.000121694
0.0001352
0.000143557
4.89913e-05
5.8786e-05
7.44666e-05
7.01916e-05
5.03423e-05
3.04868e-05
1.55721e-05
1.56218e-05
1.77076e-05
1.72248e-05
1.35404e-05
1.2795e-05
2.55214e-05
5.20579e-05
7.92326e-05
9.70908e-05
0.000111687
0.000123268
0.000130977
0.000135179
4.36319e-05
5.93711e-05
8.29572e-05
9.51523e-05
7.73488e-05
4.88958e-05
2.31177e-05
1.34713e-05
1.557e-05
1.4378e-05
1.26366e-05
1.79476e-05
3.90542e-05
7.66585e-05
9.04522e-05
0.000105477
0.000116184
0.000122435
0.000124105
0.000125138
3.72758e-05
5.56498e-05
8.60892e-05
0.000110421
0.000112009
8.13815e-05
4.61791e-05
2.00893e-05
1.02623e-05
1.18645e-05
1.67228e-05
3.39347e-05
7.34348e-05
8.90793e-05
0.000102004
0.000112812
0.000118537
0.000118637
0.000115076
0.000114457
3.06049e-05
4.39323e-05
7.76211e-05
0.000114295
0.000139755
0.000137244
0.000102474
6.3058e-05
4.85076e-05
2.20802e-05
3.95393e-05
7.73459e-05
9.04088e-05
0.000102865
0.000112037
0.000117511
0.000117583
0.000112131
0.000105046
0.000104072
2.36964e-05
2.70568e-05
5.09707e-05
8.45811e-05
0.000116981
0.000134836
0.000133628
0.000116699
9.36051e-05
8.51628e-05
8.77689e-05
9.37641e-05
0.000103433
0.000111945
0.000116958
0.000117673
0.000113044
0.000104024
9.53835e-05
9.45623e-05
1.88479e-05
1.33439e-05
2.09287e-05
3.52497e-05
5.47242e-05
7.37276e-05
8.58854e-05
8.99243e-05
8.76925e-05
8.68036e-05
9.09088e-05
9.74139e-05
0.000105204
0.000111269
0.000113848
0.000112255
0.000105883
9.57964e-05
8.71451e-05
8.61198e-05
1.79737e-05
8.99921e-06
1.14904e-05
1.80073e-05
2.80645e-05
4.04421e-05
5.21917e-05
6.12593e-05
6.76361e-05
7.33376e-05
7.9854e-05
8.69636e-05
9.37901e-05
9.85178e-05
0.000100018
9.80515e-05
9.29591e-05
8.63037e-05
8.08029e-05
7.91255e-05
2.12756e-05
9.19354e-06
8.2924e-06
1.16753e-05
1.71093e-05
2.41786e-05
3.20506e-05
3.97414e-05
4.67971e-05
5.3426e-05
5.99026e-05
6.61171e-05
7.14532e-05
7.49195e-05
7.60037e-05
7.49755e-05
7.28398e-05
7.14396e-05
7.39517e-05
8.97464e-05
3.49286e-05
2.19654e-05
1.48135e-05
1.36943e-05
1.53796e-05
1.80911e-05
2.16707e-05
2.58026e-05
3.0152e-05
3.45023e-05
3.87025e-05
4.25562e-05
4.57116e-05
4.77748e-05
4.86923e-05
4.89671e-05
4.97962e-05
5.38591e-05
7.03853e-05
0.000140941
8.36699e-05
0.000112745
0.000132379
0.000134828
0.000129146
0.00012101
0.000114351
0.000110271
0.00010866
0.000109322
0.000112043
0.000116586
0.000122566
0.000129341
0.000136462
0.000143615
0.000150884
0.000159812
0.000176996
0.000224774
8.96247e-05
0.000138638
0.000163286
0.000182752
0.000206304
0.000235031
0.000263928
0.000271219
0.000260394
0.000241062
0.000219047
0.00019738
0.00017759
0.000160205
0.000145505
0.000133467
0.000123958
0.000117137
0.000113818
0.000115207
8.72857e-05
0.000173645
0.00020651
0.00023249
0.00025412
0.000273158
0.000281216
0.000274445
0.000256253
0.000231354
0.000204
0.000177063
0.000153134
0.000134061
0.000120698
0.000112855
0.000110387
0.000115339
0.000126917
0.000127308
7.85158e-05
0.000141205
0.00016265
0.000180085
0.000189701
0.000193966
0.000193416
0.000188437
0.000180772
0.000169571
0.000154919
0.000137868
0.00012013
0.000104316
9.27794e-05
8.67789e-05
8.72735e-05
9.86242e-05
0.000123493
0.000137101
7.31236e-05
0.000109124
0.000123034
0.000135911
0.000139809
0.000136658
0.000132916
0.000131194
0.000131706
0.000131763
0.000128836
0.000121772
0.000110966
9.81129e-05
8.6082e-05
7.85744e-05
7.771e-05
9.17644e-05
0.000124107
0.000145615
6.97552e-05
9.2037e-05
0.000103654
0.000115365
0.000114046
0.000103403
9.38192e-05
8.95066e-05
8.87236e-05
9.01651e-05
9.17986e-05
9.17606e-05
8.92655e-05
8.47024e-05
7.93735e-05
7.50361e-05
7.72483e-05
9.33295e-05
0.000126206
0.000150817
6.76057e-05
8.46644e-05
9.76545e-05
0.000108452
9.72285e-05
8.01157e-05
6.48352e-05
5.56082e-05
5.18682e-05
5.23399e-05
5.51504e-05
5.87808e-05
6.25698e-05
6.68609e-05
7.15305e-05
7.37608e-05
7.99584e-05
9.76241e-05
0.000127637
0.000152288
6.64946e-05
8.31676e-05
9.93571e-05
0.000107801
9.33168e-05
7.35687e-05
5.39748e-05
3.96303e-05
3.29472e-05
2.89688e-05
3.10062e-05
3.32292e-05
4.0384e-05
5.2674e-05
6.77687e-05
7.43269e-05
8.39926e-05
0.00010188
0.000127518
0.000150256
6.62622e-05
8.53594e-05
0.000105803
0.000117244
0.00010358
8.08332e-05
5.5616e-05
3.74235e-05
2.0368e-05
1.41641e-05
1.29321e-05
1.90237e-05
2.79758e-05
4.9088e-05
6.75007e-05
7.68372e-05
8.8638e-05
0.000105344
0.000125852
0.000145088
6.65987e-05
9.04197e-05
0.000116669
0.000136928
0.000125739
9.89385e-05
6.10198e-05
2.37711e-05
1.24861e-05
8.9842e-06
7.58166e-06
9.2098e-06
1.96307e-05
4.81874e-05
7.04523e-05
8.1144e-05
9.36442e-05
0.000107687
0.000122236
0.000137037
6.69437e-05
9.83024e-05
0.000131785
0.000162655
0.000158073
0.000128474
6.53847e-05
1.84383e-05
9.32884e-06
8.48945e-06
7.26217e-06
7.50825e-06
2.44299e-05
5.36491e-05
7.60469e-05
8.72479e-05
9.86993e-05
0.000108129
0.000115735
0.000126568
6.63705e-05
0.00010857
0.00014919
0.000185973
0.000195727
0.000170038
7.42513e-05
1.70699e-05
8.57464e-06
9.30632e-06
7.92428e-06
1.0811e-05
3.3029e-05
6.66796e-05
8.4957e-05
9.50591e-05
0.000103282
0.000105553
0.000105926
0.000114622
6.25783e-05
0.000116908
0.000162437
0.000200152
0.000227555
0.000221094
0.000130125
3.46035e-05
7.63467e-06
7.98865e-06
9.57606e-06
2.15444e-05
6.23681e-05
8.28599e-05
9.74719e-05
0.000104174
0.000105978
9.9075e-05
9.35983e-05
0.000102493
5.14858e-05
0.000111783
0.000162265
0.000205599
0.000244507
0.000267265
0.000258023
0.000128899
4.03425e-05
2.52174e-05
2.70221e-05
7.44195e-05
9.57085e-05
0.0001179
0.000113212
0.000112342
0.000104237
8.92095e-05
8.07524e-05
9.13342e-05
3.82588e-05
8.17375e-05
0.000134859
0.000183407
0.000226855
0.000264426
0.00029582
0.000311934
0.000234749
0.000178165
0.000154702
0.000148015
0.00016205
0.000137848
0.000124489
0.000113713
9.69966e-05
7.80897e-05
6.94399e-05
8.17531e-05
3.048e-05
4.91455e-05
8.55913e-05
0.000124729
0.000160447
0.00018832
0.000206885
0.000217109
0.000220837
0.000218862
0.00020579
0.000183049
0.000157839
0.000138063
0.000122682
0.000106421
8.6393e-05
6.79346e-05
6.08699e-05
7.37018e-05
2.5522e-05
2.99052e-05
5.01135e-05
7.98949e-05
0.000109535
0.000131108
0.000145386
0.000155652
0.000164364
0.000168584
0.000164117
0.000152529
0.000138474
0.000125397
0.000111623
9.47079e-05
7.56029e-05
6.02941e-05
5.55056e-05
6.66717e-05
2.34262e-05
2.06752e-05
2.7833e-05
4.1093e-05
5.84871e-05
7.76501e-05
9.4835e-05
0.000107986
0.00011699
0.000121773
0.000122179
0.000118897
0.000113344
0.000105963
9.57788e-05
8.25792e-05
6.84665e-05
5.74159e-05
5.3526e-05
5.99564e-05
2.51759e-05
1.8433e-05
1.94135e-05
2.55361e-05
3.5095e-05
4.6406e-05
5.79545e-05
6.83293e-05
7.66693e-05
8.26263e-05
8.61453e-05
8.73798e-05
8.64561e-05
8.31222e-05
7.72156e-05
6.95286e-05
6.19917e-05
5.67741e-05
5.54436e-05
5.73846e-05
3.53644e-05
2.78679e-05
2.23384e-05
2.31915e-05
2.67027e-05
3.14953e-05
3.70463e-05
4.27433e-05
4.79995e-05
5.2393e-05
5.56833e-05
5.77363e-05
5.83964e-05
5.75132e-05
5.53261e-05
5.27157e-05
5.1109e-05
5.23327e-05
5.98723e-05
8.26478e-05
7.14964e-05
9.45004e-05
0.000106867
0.00010816
0.000105186
0.000101374
9.83349e-05
9.65691e-05
9.60814e-05
9.67212e-05
9.82901e-05
0.000100573
0.000103352
0.000106427
0.000109643
0.000112874
0.000116134
0.000120168
0.000128169
0.000148897
0.000101566
0.000168066
0.000192876
0.000212712
0.000241974
0.000280099
0.000316944
0.000316375
0.000294847
0.000267135
0.00023929
0.000213773
0.000191638
0.000172787
0.000157306
0.000144856
0.000135094
0.000127961
0.000123757
0.000122181
0.000105509
0.000225899
0.00025767
0.0002801
0.000301193
0.000321009
0.000323002
0.000300869
0.000267406
0.000231524
0.0001978
0.000167437
0.000142363
0.000123843
0.000111706
0.000104951
0.000104071
0.0001123
0.000129098
0.000133912
9.61529e-05
0.00017198
0.000189408
0.000204
0.000214487
0.000221613
0.000216134
0.00019913
0.000179733
0.000158261
0.000136275
0.000115802
9.72594e-05
8.26758e-05
7.36768e-05
7.06228e-05
7.36365e-05
8.85934e-05
0.000120077
0.000142462
8.83937e-05
0.000125112
0.000136226
0.000147805
0.000155538
0.000155024
0.000144132
0.000132395
0.00012663
0.000125122
0.000122809
0.000116427
0.000105174
8.98393e-05
7.44424e-05
6.46275e-05
6.29971e-05
7.87563e-05
0.000116667
0.000148619
8.26057e-05
0.000100048
0.000109465
0.000122484
0.00013141
0.00012411
0.00010771
9.56355e-05
8.99484e-05
8.9496e-05
9.09551e-05
9.1094e-05
8.79789e-05
8.15779e-05
7.27547e-05
6.34269e-05
6.38326e-05
7.89166e-05
0.000114962
0.000149822
7.88848e-05
8.87227e-05
9.99706e-05
0.000117482
0.000126805
0.000108523
8.76628e-05
7.2605e-05
6.32254e-05
5.99205e-05
6.07577e-05
6.36237e-05
6.65157e-05
6.88761e-05
6.91005e-05
6.4317e-05
6.77625e-05
8.16318e-05
0.000112389
0.000146239
7.75027e-05
8.72298e-05
0.000102263
0.000123573
0.000128739
0.000103529
8.07235e-05
6.44565e-05
4.8726e-05
4.23965e-05
4.12713e-05
4.26041e-05
4.74461e-05
5.88948e-05
6.65374e-05
6.60351e-05
7.1993e-05
8.43818e-05
0.000108551
0.000138993
7.86281e-05
9.35478e-05
0.000112648
0.000132486
0.000133295
0.00010689
8.52641e-05
6.32213e-05
4.2898e-05
2.75237e-05
1.99558e-05
2.22661e-05
3.56054e-05
5.66014e-05
6.59385e-05
6.89283e-05
7.64896e-05
8.63401e-05
0.000103518
0.000129169
8.21951e-05
0.000106382
0.000128522
0.000142701
0.000144163
0.000118087
0.000103475
5.81164e-05
2.83219e-05
1.47846e-05
9.31504e-06
1.16654e-05
2.72116e-05
5.48209e-05
6.82548e-05
7.36215e-05
8.11403e-05
8.60648e-05
9.57878e-05
0.000117343
8.77775e-05
0.000124504
0.000147403
0.00015643
0.000160506
0.000139519
0.000124322
4.65859e-05
1.09496e-05
7.27859e-06
6.59758e-06
8.46865e-06
2.84039e-05
5.94365e-05
7.43005e-05
8.06519e-05
8.52285e-05
8.19607e-05
8.42949e-05
0.000104466
9.4119e-05
0.000145619
0.000168565
0.000176316
0.000183918
0.00017805
0.000168269
6.2779e-05
7.60627e-06
8.54676e-06
7.58037e-06
3.25449e-05
7.31653e-05
8.64122e-05
9.04331e-05
8.78783e-05
7.39895e-05
7.06737e-05
9.19464e-05
9.72986e-05
0.000163617
0.000190251
0.00020441
0.000223178
0.000243318
0.00024061
0.000187555
6.12516e-05
1.55708e-05
8.36817e-05
0.0253133
9.92936e-05
0.000105141
0.00010752
0.000103249
8.74098e-05
6.39963e-05
5.7969e-05
8.10478e-05
8.15214e-05
0.000164995
0.000203016
0.000231236
0.000262525
0.000298009
0.000321882
0.00034514
0.000272312
0.000176209
0.000185525
0.000239122
0.000224656
0.00015815
0.000131524
0.000108826
8.00567e-05
5.47729e-05
4.8355e-05
7.23141e-05
4.35193e-05
0.000115001
0.000174779
0.000217183
0.000250006
0.000274857
0.000298287
0.000377938
0.000419104
0.00043216
0.000427015
0.000395247
0.000284984
0.000168808
0.000129412
9.84127e-05
6.92411e-05
4.75273e-05
4.19299e-05
6.55991e-05
3.43147e-05
5.55964e-05
9.65248e-05
0.00013383
0.000164192
0.000182933
0.000184956
0.00017357
0.000159274
0.000154741
0.000162379
0.000174779
0.000154871
0.000132694
0.00010824
8.25096e-05
5.9071e-05
4.18418e-05
3.80087e-05
6.03167e-05
3.1499e-05
3.75791e-05
5.75741e-05
8.40602e-05
0.000107273
0.000123158
0.00013163
0.000134155
0.000131778
0.000129305
0.000128785
0.000127548
0.000116431
0.000103405
8.68042e-05
6.76781e-05
5.00874e-05
3.76224e-05
3.63636e-05
5.5739e-05
3.01734e-05
3.04035e-05
3.88261e-05
5.3251e-05
7.02648e-05
8.56609e-05
9.79235e-05
0.000105185
0.000108073
0.000108151
0.000106251
0.000101565
9.41503e-05
8.50354e-05
7.30145e-05
5.90965e-05
4.62185e-05
3.76192e-05
3.76718e-05
5.10027e-05
3.15817e-05
2.83336e-05
2.97206e-05
3.58948e-05
4.53619e-05
5.62867e-05
6.64892e-05
7.45428e-05
7.9791e-05
8.23253e-05
8.25178e-05
8.07306e-05
7.73066e-05
7.19702e-05
6.45919e-05
5.62794e-05
4.89541e-05
4.44457e-05
4.41837e-05
4.65546e-05
3.96053e-05
3.6372e-05
3.20918e-05
3.20723e-05
3.57128e-05
4.05736e-05
4.58461e-05
5.08123e-05
5.48691e-05
5.76985e-05
5.92622e-05
5.967e-05
5.8958e-05
5.7004e-05
5.41323e-05
5.12506e-05
4.95201e-05
4.99005e-05
5.29855e-05
5.66653e-05
6.59658e-05
8.45176e-05
9.43913e-05
9.68302e-05
9.54134e-05
9.33458e-05
9.1614e-05
9.05262e-05
9.0104e-05
9.02483e-05
9.08209e-05
9.16743e-05
9.26789e-05
9.37417e-05
9.47659e-05
9.56294e-05
9.62182e-05
9.67578e-05
9.85786e-05
0.000104613
0.000116666
0.00019696
0.000217583
0.000240287
0.000279588
0.000331499
0.000379394
0.000364977
0.000328257
0.000290058
0.000255477
0.000225774
0.000201082
0.000181203
0.000165706
0.000153392
0.000143771
0.000136574
0.000131574
0.000127009
0.000133063
0.00027948
0.000295829
0.000315168
0.000350513
0.000388474
0.000395477
0.000347873
0.000288897
0.000236026
0.000192859
0.000159034
0.00013368
0.000116137
0.000104715
9.80177e-05
9.77536e-05
0.00010813
0.000129369
0.000137538
0.000120513
0.000198732
0.000203284
0.000217711
0.000243287
0.000273372
0.000272217
0.000230845
0.00018693
0.000151139
0.000122749
9.97678e-05
8.14721e-05
6.76437e-05
5.88885e-05
5.69616e-05
6.0944e-05
7.74938e-05
0.000113605
0.000142948
0.000106446
0.00014147
0.000141357
0.000149943
0.000166518
0.000185945
0.000175483
0.000142303
0.000117404
0.00010497
9.90795e-05
9.54542e-05
9.04571e-05
7.70767e-05
6.12091e-05
4.9972e-05
4.73516e-05
6.30916e-05
0.000103928
0.000144476
9.61989e-05
0.000110476
0.00010636
0.000109976
0.00011958
0.000128164
0.000107769
8.7904e-05
8.00082e-05
7.83317e-05
8.01696e-05
8.12038e-05
7.80011e-05
7.03286e-05
5.84844e-05
4.80098e-05
4.54994e-05
5.9207e-05
9.60237e-05
0.000140085
8.95405e-05
9.38227e-05
8.61045e-05
8.56918e-05
9.0054e-05
9.10816e-05
7.5662e-05
6.4926e-05
5.86169e-05
5.63472e-05
5.79603e-05
6.11084e-05
6.32741e-05
6.32139e-05
5.73866e-05
4.95812e-05
4.90093e-05
5.8339e-05
8.82696e-05
0.000130898
8.68102e-05
8.75823e-05
7.7471e-05
7.45424e-05
7.59558e-05
7.65271e-05
6.66413e-05
6.52208e-05
5.74577e-05
4.95865e-05
4.6526e-05
4.79303e-05
5.00666e-05
5.76127e-05
5.64103e-05
5.21327e-05
5.29824e-05
5.88993e-05
8.1027e-05
0.000119299
8.82891e-05
9.01404e-05
7.89899e-05
7.50369e-05
7.60093e-05
7.65858e-05
7.95523e-05
6.21767e-05
4.77891e-05
3.50793e-05
2.79447e-05
2.87459e-05
3.84324e-05
5.46583e-05
5.69492e-05
5.57976e-05
5.73155e-05
5.90037e-05
7.36203e-05
0.000106845
9.39887e-05
0.000100542
8.97068e-05
8.58589e-05
8.70437e-05
8.7275e-05
8.0625e-05
5.39528e-05
3.88785e-05
0.000148729
1.4535e-05
1.70546e-05
3.18571e-05
5.34058e-05
6.00557e-05
6.10768e-05
6.04038e-05
5.55459e-05
6.31215e-05
9.39121e-05
0.000103663
0.000118354
0.000110118
0.000108544
0.00011186
0.000116408
9.65744e-05
0.000125141
0.00124243
0.000560082
0.0159197
0.050812
5.80281e-05
5.90459e-05
6.84542e-05
6.93325e-05
6.409e-05
5.02309e-05
5.12971e-05
8.16887e-05
0.000116521
0.00014311
0.000142522
0.000147703
0.000158395
0.000175185
0.000166049
0.00030003
0.00100759
0.00118441
7.44392e-05
0.000926624
0.00012986
8.3214e-05
8.80986e-05
8.70388e-05
7.26154e-05
4.72599e-05
4.23808e-05
7.14942e-05
0.00012974
0.000172325
0.000188925
0.000208371
0.000234136
0.000268811
0.000294301
0.000494679
0.00101218
0.000396874
0.000222328
0.00033617
0.000526441
0.000152636
0.000126903
0.000108968
7.32436e-05
4.57856e-05
3.76836e-05
6.36166e-05
0.00012355
0.000193853
0.000237232
0.00027597
0.000315935
0.000355705
0.000392531
0.00056136
0.000824088
0.000977224
0.00108584
0.00101614
0.000398114
0.000234363
0.000138708
9.94322e-05
6.61124e-05
4.47972e-05
3.56117e-05
5.78847e-05
4.88889e-05
0.000135718
0.00021853
0.000260279
0.000291453
0.000305307
0.000297064
0.000311395
0.000268446
0.000271331
0.000258505
0.000295353
0.000233152
0.000134126
0.000111702
8.36651e-05
5.99941e-05
4.2986e-05
3.41774e-05
5.38417e-05
3.72297e-05
5.53602e-05
9.89658e-05
0.000141709
0.000169782
0.000185901
0.000185477
0.000169448
0.000150188
0.00013663
0.000130792
0.000130635
0.000115154
0.000104905
9.17024e-05
7.32039e-05
5.5348e-05
3.99643e-05
3.24536e-05
5.08619e-05
3.63027e-05
4.13589e-05
5.74648e-05
7.97615e-05
0.000100653
0.000114196
0.000122279
0.00012352
0.000119041
0.000113496
0.000110309
0.000107828
9.65229e-05
8.78856e-05
7.7142e-05
6.33666e-05
4.90419e-05
3.6175e-05
3.08674e-05
4.83281e-05
3.58573e-05
3.73096e-05
4.43231e-05
5.57155e-05
6.92134e-05
8.14295e-05
9.05225e-05
9.52258e-05
9.5797e-05
9.39251e-05
9.0897e-05
8.64746e-05
7.92072e-05
7.23101e-05
6.35335e-05
5.30103e-05
4.23242e-05
3.36824e-05
3.1711e-05
4.52726e-05
3.72079e-05
3.66049e-05
3.78846e-05
4.27463e-05
5.02688e-05
5.89892e-05
6.7228e-05
7.34479e-05
7.68107e-05
7.73947e-05
7.58274e-05
7.27376e-05
6.87077e-05
6.37045e-05
5.72383e-05
4.99922e-05
4.32607e-05
3.86128e-05
3.79216e-05
4.15919e-05
4.33318e-05
4.34677e-05
4.06328e-05
4.00299e-05
4.20526e-05
4.5903e-05
5.02416e-05
5.41848e-05
5.70831e-05
5.86419e-05
5.8975e-05
5.84277e-05
5.72022e-05
5.51732e-05
5.2571e-05
5.00634e-05
4.8374e-05
4.78757e-05
4.80593e-05
4.40749e-05
6.17419e-05
7.6984e-05
8.535e-05
8.85819e-05
8.88702e-05
8.78536e-05
8.67235e-05
8.58209e-05
8.52081e-05
8.48407e-05
8.4633e-05
8.44816e-05
8.42932e-05
8.40023e-05
8.34966e-05
8.2609e-05
8.11406e-05
7.90752e-05
7.69216e-05
7.54633e-05
0.000145573
0.000234247
0.000245571
0.000274773
0.000325896
0.000391699
0.000453998
0.000421584
0.000364164
0.000313064
0.000270818
0.00023663
0.000209277
0.000187628
0.000170723
0.000157982
0.000148897
0.00014196
0.000136478
0.000129255
0.000166823
0.000315467
0.000329693
0.000359699
0.000415251
0.000486335
0.000521298
0.000435641
0.000338104
0.000259889
0.000202834
0.000162279
0.000134049
0.000114728
0.000101715
9.46849e-05
9.33739e-05
0.0001039
0.000128092
0.000137547
0.000142318
0.000211907
0.000226523
0.000272682
0.000324511
0.000389226
0.000402431
0.000315878
0.000228424
0.000164441
0.000121161
9.22042e-05
7.43397e-05
6.4239e-05
5.84845e-05
5.28976e-05
5.41544e-05