/*--------------------------------*- C++ -*----------------------------------*\
| =========                 |                                                 |
| \\      /  F ield         | OpenFOAM: The Open Source CFD Toolbox           |
|  \\    /   O peration     | Version:                                        |
|   \\  /    A nd           | Website:  www.openfoam.com                      |
|    \\/     M anipulation  |                                                 |
\*---------------------------------------------------------------------------*/
FoamFile
{
    version     2.0;
    format      ascii;
    class       volScalarField;
    location    "1000";
    object      nut;
}
// * * * * * * * * * * * * * * * * * * * * * * * * * * * * * * * * * * * * * //

dimensions      [0 2 -1 0 0 0 0];


internalField   nonuniform List<scalar> 
206582
(
0.000156479
0.00015867
0.000160068
0.000160526
0.000160086
0.000158991
0.00015745
0.000155846
0.000154433
0.000153373
0.000152746
0.000152596
0.000152946
0.000153815
0.0001552
0.000157044
0.000159207
0.000161316
0.000162821
0.000162136
0.000158088
1.07069e-05
8.15683e-06
8.38382e-06
8.97209e-06
9.62797e-06
1.02343e-05
1.0697e-05
1.09721e-05
1.10697e-05
1.10356e-05
1.09222e-05
1.07839e-05
1.06686e-05
1.0601e-05
1.05687e-05
1.0529e-05
1.04165e-05
1.12481e-05
0.000164381
0.000157458
8.19455e-06
4.98216e-06
4.7103e-06
4.83253e-06
5.0339e-06
5.24478e-06
5.43019e-06
5.56819e-06
5.65044e-06
5.68229e-06
5.66827e-06
5.62028e-06
5.56004e-06
5.50284e-06
5.44791e-06
5.39008e-06
5.40148e-06
7.09055e-06
0.000167458
0.000156975
8.31218e-06
4.58969e-06
4.11175e-06
4.09184e-06
4.16329e-06
4.25438e-06
4.34123e-06
4.41043e-06
4.45604e-06
4.48419e-06
4.49046e-06
4.473e-06
4.44301e-06
4.40932e-06
4.37682e-06
4.36338e-06
4.53129e-06
6.85495e-06
0.000169682
0.000157306
8.92885e-06
4.65662e-06
4.03574e-06
3.95995e-06
3.99221e-06
4.03668e-06
4.07159e-06
4.09908e-06
4.11844e-06
4.13303e-06
4.13772e-06
4.12855e-06
4.11176e-06
4.09467e-06
4.08509e-06
4.11815e-06
4.4199e-06
7.25486e-06
0.000171341
0.000158831
9.78103e-06
4.84513e-06
4.09263e-06
3.9783e-06
3.97167e-06
3.9846e-06
3.99782e-06
4.00779e-06
4.0141e-06
4.01922e-06
4.01995e-06
4.01387e-06
4.00528e-06
3.99998e-06
4.00897e-06
4.08021e-06
4.48969e-06
7.73232e-06
0.000172569
0.000161557
1.05583e-05
5.02079e-06
4.14671e-06
3.98869e-06
3.96632e-06
3.97016e-06
3.97674e-06
3.98068e-06
3.98148e-06
3.98145e-06
3.97974e-06
3.97592e-06
3.97303e-06
3.97625e-06
3.99915e-06
4.1005e-06
4.59468e-06
8.15069e-06
0.00017346
0.000165544
1.05599e-05
4.97409e-06
4.13656e-06
3.98482e-06
3.96219e-06
3.96524e-06
3.97068e-06
3.97288e-06
3.9717e-06
3.96934e-06
3.96678e-06
3.96522e-06
3.9666e-06
3.97561e-06
4.00862e-06
4.13268e-06
4.69078e-06
8.4742e-06
0.000174106
0.000167473
9.28811e-06
4.68923e-06
4.075e-06
3.97193e-06
3.96025e-06
3.96426e-06
3.96899e-06
3.97128e-06
3.9706e-06
3.96688e-06
3.96396e-06
3.9645e-06
3.96859e-06
3.98125e-06
4.02091e-06
4.16014e-06
4.76228e-06
8.69349e-06
0.000174603
0.000168572
8.23464e-06
4.4571e-06
4.01383e-06
3.95277e-06
3.95114e-06
3.9561e-06
3.96054e-06
3.96573e-06
3.9702e-06
3.96714e-06
3.96436e-06
3.96629e-06
3.97187e-06
3.98648e-06
4.02956e-06
4.17603e-06
4.80238e-06
8.8079e-06
0.000175063
0.000169572
7.47611e-06
4.29032e-06
3.97495e-06
3.93775e-06
3.9381e-06
3.93612e-06
3.93763e-06
3.95071e-06
3.965e-06
3.96488e-06
3.96419e-06
3.96712e-06
3.97331e-06
3.98834e-06
4.03167e-06
4.17837e-06
4.80827e-06
8.82179e-06
0.000175591
0.000170715
6.827e-06
4.12979e-06
3.94401e-06
3.92863e-06
3.93211e-06
3.92886e-06
3.92411e-06
3.93983e-06
3.95761e-06
3.96066e-06
3.96238e-06
3.96588e-06
3.9718e-06
3.98587e-06
4.02642e-06
4.16853e-06
4.78098e-06
8.7455e-06
0.000176289
0.000171788
6.36308e-06
4.0359e-06
3.92563e-06
3.92273e-06
3.92904e-06
3.93023e-06
3.93125e-06
3.93937e-06
3.95159e-06
3.95633e-06
3.95911e-06
3.96242e-06
3.96743e-06
3.97943e-06
4.01507e-06
4.14799e-06
4.72595e-06
8.59721e-06
0.00017725
0.000172628
6.1066e-06
3.99992e-06
3.91609e-06
3.9179e-06
3.92543e-06
3.93051e-06
3.93489e-06
3.94078e-06
3.94766e-06
3.95185e-06
3.95474e-06
3.9573e-06
3.96105e-06
3.97074e-06
4.00165e-06
4.12019e-06
4.65269e-06
8.40209e-06
0.000178577
0.00017318
5.99668e-06
4.00235e-06
3.91144e-06
3.914e-06
3.92077e-06
3.92731e-06
3.9333e-06
3.93843e-06
3.94357e-06
3.94713e-06
3.94946e-06
3.95141e-06
3.95422e-06
3.96223e-06
3.98908e-06
4.0907e-06
4.57269e-06
8.18534e-06
0.000180395
0.000173327
5.91697e-06
4.01024e-06
3.90995e-06
3.91162e-06
3.9174e-06
3.92351e-06
3.92952e-06
3.93484e-06
3.9391e-06
3.94199e-06
3.94381e-06
3.94508e-06
3.94707e-06
3.95329e-06
3.97541e-06
4.06235e-06
4.49497e-06
7.96134e-06
0.000182882
0.000173136
5.81161e-06
4.01936e-06
3.91901e-06
3.91605e-06
3.91889e-06
3.92201e-06
3.9258e-06
3.92999e-06
3.93352e-06
3.93575e-06
3.93698e-06
3.93767e-06
3.93888e-06
3.94336e-06
3.9607e-06
4.03242e-06
4.41044e-06
7.68927e-06
0.000185885
0.000172967
5.82992e-06
4.18032e-06
4.04446e-06
4.00816e-06
3.9955e-06
3.97444e-06
3.95057e-06
3.93341e-06
3.92811e-06
3.92939e-06
3.92988e-06
3.93001e-06
3.93051e-06
3.93352e-06
3.9463e-06
4.00178e-06
4.30954e-06
7.21374e-06
0.000186536
0.00017334
8.17717e-06
6.68574e-06
6.18871e-06
5.93291e-06
5.86174e-06
5.68809e-06
5.38887e-06
5.01987e-06
4.67255e-06
4.45643e-06
4.41273e-06
4.37956e-06
4.35072e-06
4.32812e-06
4.31733e-06
4.34334e-06
4.56876e-06
6.99264e-06
0.000186397
0.000174931
0.000178077
0.000182018
0.000185159
0.000185999
0.000186542
0.000186254
0.000185735
0.000185253
0.000184897
0.00018479
0.000183364
0.000180874
0.000178264
0.000175874
0.000173796
0.000172177
0.000171373
0.000173
0.00018686
5.7043e-05
6.22703e-05
6.599e-05
6.92104e-05
7.25237e-05
7.60814e-05
7.96387e-05
8.18605e-05
8.22177e-05
8.1062e-05
7.89433e-05
7.63265e-05
7.35569e-05
7.08709e-05
6.84439e-05
6.63997e-05
6.48164e-05
6.37469e-05
6.32182e-05
6.34604e-05
5.62031e-05
6.0139e-05
6.90492e-05
7.58283e-05
8.13276e-05
8.56754e-05
8.85171e-05
8.93238e-05
8.78043e-05
8.40801e-05
7.86615e-05
7.22425e-05
6.56043e-05
5.9477e-05
5.44232e-05
5.07795e-05
4.87472e-05
4.88796e-05
5.09782e-05
6.52538e-05
5.45651e-05
5.3484e-05
5.92854e-05
6.44425e-05
6.78766e-05
6.99857e-05
7.09959e-05
7.09253e-05
6.9668e-05
6.70812e-05
6.32408e-05
5.84756e-05
5.33249e-05
4.83948e-05
4.42504e-05
4.1397e-05
4.0398e-05
4.25748e-05
4.82018e-05
6.7752e-05
5.43295e-05
4.5127e-05
4.58921e-05
4.71604e-05
4.81475e-05
4.85388e-05
4.85333e-05
4.80266e-05
4.57482e-05
3.89271e-05
3.46296e-05
3.30838e-05
3.20543e-05
3.02921e-05
2.52123e-05
2.18453e-05
2.52872e-05
3.8096e-05
4.79264e-05
7.04451e-05
5.54579e-05
3.96487e-05
3.63399e-05
3.35961e-05
3.1159e-05
2.81406e-05
1.81068e-05
1.11078e-05
8.56683e-06
7.39112e-06
6.892e-06
6.89482e-06
7.33926e-06
8.02029e-06
8.4751e-06
9.4049e-06
1.43971e-05
3.70071e-05
4.90502e-05
7.26872e-05
5.69259e-05
3.33716e-05
2.59956e-05
2.34417e-05
1.54276e-05
5.77103e-06
2.9164e-06
2.11627e-06
1.92044e-06
1.88777e-06
1.90575e-06
1.98316e-06
2.28085e-06
3.01351e-06
4.07741e-06
5.85618e-06
1.18904e-05
3.76044e-05
5.06298e-05
7.44741e-05
5.80768e-05
2.15375e-05
6.71549e-06
1.85878e-06
1.17544e-06
9.55077e-07
8.79928e-07
8.92128e-07
9.43142e-07
9.93327e-07
1.01781e-06
1.02012e-06
1.16608e-06
1.76112e-06
2.8968e-06
5.26057e-06
1.27776e-05
3.92642e-05
5.22174e-05
7.58177e-05
5.85641e-05
1.27357e-05
1.94478e-06
8.22306e-07
7.2279e-07
7.70943e-07
8.2721e-07
8.78814e-07
9.22408e-07
9.45336e-07
9.25208e-07
8.51068e-07
9.26263e-07
1.51003e-06
2.8609e-06
5.99688e-06
1.62012e-05
4.13975e-05
5.35776e-05
7.67373e-05
5.85249e-05
1.04453e-05
1.11779e-06
6.66446e-07
7.52804e-07
8.89059e-07
9.94549e-07
1.05154e-06
1.08e-06
1.07636e-06
1.00053e-06
8.56484e-07
9.45316e-07
1.66531e-06
3.43731e-06
7.89745e-06
2.25366e-05
4.35506e-05
5.45604e-05
7.72463e-05
5.83005e-05
1.74124e-05
1.03668e-06
5.03813e-07
6.62105e-07
8.31453e-07
1.01458e-06
1.15768e-06
1.22397e-06
1.21271e-06
1.06563e-06
8.91542e-07
1.09409e-06
2.09631e-06
4.64907e-06
1.12834e-05
3.12097e-05
4.53682e-05
5.50154e-05
7.73573e-05
5.83369e-05
1.35816e-05
3.62527e-06
4.13581e-07
5.64217e-07
7.2485e-07
9.17654e-07
1.17387e-06
1.29258e-06
1.23939e-06
1.03575e-06
9.54148e-07
1.37027e-06
2.89293e-06
6.78129e-06
1.67891e-05
3.68586e-05
4.65574e-05
5.47898e-05
7.71042e-05
5.8766e-05
8.9978e-06
3.94032e-06
4.4666e-07
5.28604e-07
6.49651e-07
8.08331e-07
1.10626e-06
1.18603e-06
1.09567e-06
9.69008e-07
1.07798e-06
1.88147e-06
4.30848e-06
1.03308e-05
2.47534e-05
3.97099e-05
4.68949e-05
5.37781e-05
7.65704e-05
5.95563e-05
4.63395e-06
2.94742e-06
8.22199e-07
5.38901e-07
5.79544e-07
6.51686e-07
7.82536e-07
9.00472e-07
9.02326e-07
9.4891e-07
1.38244e-06
2.87202e-06
6.79075e-06
1.56589e-05
3.18142e-05
4.08524e-05
4.62274e-05
5.19845e-05
7.59009e-05
5.96468e-05
1.76396e-06
1.25584e-06
9.69365e-07
7.40181e-07
5.76677e-07
5.32477e-07
5.74274e-07
6.79132e-07
8.03951e-07
1.11904e-06
2.08033e-06
4.64125e-06
1.04478e-05
2.14159e-05
3.48608e-05
4.05535e-05
4.45146e-05
4.95564e-05
7.52986e-05
5.92636e-05
6.37481e-07
3.28364e-07
4.78424e-07
6.17431e-07
7.56373e-07
7.12554e-07
5.80652e-07
6.54836e-07
9.17422e-07
1.54811e-06
3.08968e-06
6.49106e-06
1.28301e-05
2.2417e-05
3.28559e-05
3.87507e-05
4.18403e-05
4.676e-05
7.50251e-05
5.90934e-05
4.94876e-07
2.19838e-07
3.80007e-07
4.18683e-07
4.06017e-07
4.29348e-07
5.05356e-07
6.61654e-07
1.00126e-06
1.74076e-06
3.27328e-06
6.07455e-06
1.03191e-05
1.5546e-05
2.09972e-05
2.6887e-05
3.54739e-05
4.38076e-05
7.54724e-05
5.88364e-05
8.25725e-07
2.27431e-07
3.83581e-07
4.25812e-07
4.12531e-07
4.2167e-07
4.70919e-07
5.91011e-07
8.50245e-07
1.37188e-06
2.32805e-06
3.84592e-06
5.83876e-06
8.02041e-06
1.02772e-05
1.31286e-05
1.79132e-05
2.74443e-05
7.81378e-05
5.9439e-05
2.75927e-06
3.7266e-07
3.564e-07
4.04283e-07
4.03728e-07
4.11154e-07
4.39912e-07
5.0898e-07
6.50918e-07
9.15812e-07
1.35795e-06
1.99839e-06
2.78076e-06
3.60939e-06
4.49074e-06
5.67668e-06
7.91513e-06
1.48629e-05
8.92562e-05
6.30647e-05
1.3618e-05
4.28912e-06
9.70843e-07
8.4181e-07
7.57905e-07
6.93457e-07
6.61115e-07
6.68795e-07
7.27689e-07
8.51425e-07
1.04873e-06
1.31184e-06
1.61741e-06
1.94251e-06
2.30614e-06
2.83294e-06
4.03698e-06
9.67762e-06
0.000101804
7.39689e-05
8.10348e-05
8.38703e-05
8.3759e-05
8.17789e-05
7.71894e-05
7.40401e-05
7.17804e-05
7.00669e-05
6.90205e-05
6.86555e-05
6.89598e-05
7.19225e-05
7.55524e-05
7.90668e-05
8.23038e-05
8.53202e-05
8.87263e-05
9.48414e-05
0.000112037
5.09374e-05
6.01402e-05
6.51833e-05
6.94251e-05
7.41627e-05
7.95114e-05
8.4717e-05
8.70917e-05
8.67031e-05
8.45392e-05
8.14031e-05
7.78222e-05
7.41369e-05
7.0544e-05
6.71745e-05
6.4115e-05
6.14208e-05
5.91845e-05
5.75712e-05
5.71891e-05
4.98175e-05
0.000128227
0.000153614
0.000158194
0.000156559
0.000153745
0.000150582
0.000145758
0.00013807
0.000127671
0.000115623
0.0001032
9.16446e-05
8.19573e-05
7.47517e-05
7.02091e-05
6.82837e-05
6.94063e-05
7.2081e-05
5.92893e-05
4.75943e-05
0.000106795
0.00012618
0.000136227
0.000137525
0.000135423
0.000132405
0.000129227
0.000124984
0.000118746
0.000110317
0.00010023
8.95712e-05
7.97178e-05
7.18711e-05
6.68121e-05
6.51546e-05
6.87804e-05
7.67821e-05
6.13128e-05
4.62063e-05
8.06364e-05
8.94288e-05
9.55153e-05
0.000100808
0.000103311
0.000104757
0.000105541
0.000105061
0.000102358
9.72771e-05
9.04988e-05
8.30069e-05
7.58753e-05
6.96882e-05
6.45455e-05
6.40488e-05
6.94728e-05
8.08786e-05
6.34515e-05
4.53761e-05
6.45233e-05
6.40803e-05
6.04382e-05
5.82646e-05
6.07438e-05
5.99697e-05
5.56337e-05
5.15651e-05
4.9099e-05
4.79879e-05
4.77687e-05
4.79453e-05
4.8177e-05
4.80184e-05
4.89765e-05
5.88053e-05
7.21794e-05
8.27061e-05
6.52807e-05
4.48028e-05
5.50532e-05
4.51591e-05
2.9778e-05
1.87053e-05
1.31726e-05
1.12837e-05
1.08862e-05
1.14236e-05
1.25429e-05
1.41313e-05
1.63554e-05
1.94753e-05
2.38693e-05
2.933e-05
3.78458e-05
5.68132e-05
7.4894e-05
8.27235e-05
6.6559e-05
4.43612e-05
5.072e-05
3.423e-05
1.36822e-05
5.7049e-06
2.73671e-06
1.875e-06
1.79479e-06
2.10165e-06
2.6627e-06
3.4808e-06
4.7901e-06
7.26877e-06
1.24349e-05
2.14171e-05
3.52878e-05
5.92928e-05
7.6751e-05
8.1682e-05
6.7212e-05
4.39905e-05
4.96486e-05
3.22328e-05
1.0959e-05
3.95836e-06
1.78497e-06
1.04034e-06
8.28225e-07
8.69634e-07
1.02222e-06
1.25287e-06
1.61369e-06
3.23564e-06
9.09934e-06
2.08112e-05
3.84652e-05
6.46701e-05
7.77832e-05
8.02294e-05
6.72302e-05
4.3601e-05
4.91942e-05
3.82277e-05
1.37588e-05
4.65606e-06
1.87008e-06
9.97638e-07
8.36133e-07
8.02608e-07
8.09619e-07
7.81281e-07
8.92461e-07
2.05508e-06
1.02202e-05
2.45052e-05
4.58461e-05
7.07155e-05
7.83574e-05
7.86869e-05
6.66073e-05
4.29821e-05
4.86962e-05
4.90932e-05
2.4309e-05
8.51343e-06
2.9179e-06
1.1093e-06
8.80569e-07
9.04842e-07
9.18161e-07
8.0962e-07
7.34206e-07
2.0798e-06
1.04084e-05
3.21779e-05
5.59851e-05
7.54918e-05
7.87075e-05
7.70128e-05
6.53406e-05
4.18044e-05
4.83477e-05
5.62599e-05
4.37077e-05
1.92091e-05
6.40851e-06
1.61475e-06
9.31242e-07
9.65245e-07
9.50012e-07
7.99481e-07
9.74089e-07
3.70086e-06
1.52752e-05
4.37632e-05
6.6902e-05
7.85425e-05
7.8778e-05
7.49689e-05
6.34745e-05
3.93968e-05
4.74496e-05
6.19115e-05
6.50698e-05
4.00456e-05
1.57906e-05
3.66854e-06
7.80695e-07
8.65983e-07
8.34062e-07
8.49669e-07
1.93077e-06
8.8111e-06
4.08831e-05
5.81624e-05
7.63255e-05
8.08688e-05
7.82991e-05
7.2348e-05
6.1133e-05
3.55705e-05
4.31362e-05
6.48202e-05
7.84407e-05
7.10352e-05
3.98639e-05
1.44101e-05
3.19181e-06
6.57997e-07
8.54544e-07
1.78301e-06
7.21247e-06
3.78423e-05
5.61605e-05
7.27389e-05
8.28464e-05
8.24774e-05
7.70076e-05
6.91839e-05
5.85113e-05
3.15528e-05
3.23172e-05
6.04221e-05
8.87829e-05
0.000103052
9.12094e-05
5.67731e-05
2.63884e-05
1.69779e-05
3.67464e-06
1.09237e-05
4.21928e-05
5.72359e-05
7.34012e-05
8.42457e-05
8.71019e-05
8.29374e-05
7.48798e-05
6.57872e-05
5.5822e-05
2.71158e-05
1.65931e-05
3.56564e-05
6.50318e-05
9.38781e-05
0.000106158
9.88298e-05
7.93494e-05
5.71198e-05
5.08454e-05
5.47454e-05
6.19889e-05
7.42625e-05
8.51416e-05
9.02968e-05
8.87397e-05
8.18843e-05
7.21858e-05
6.26109e-05
5.32349e-05
2.33951e-05
5.50017e-06
8.73107e-06
1.66955e-05
3.23752e-05
5.13667e-05
6.30056e-05
6.43727e-05
5.96609e-05
5.77003e-05
6.13452e-05
6.79044e-05
7.65426e-05
8.33329e-05
8.59557e-05
8.41453e-05
7.83973e-05
6.92507e-05
6.00379e-05
5.08618e-05
2.27317e-05
3.01695e-06
3.28935e-06
5.11875e-06
9.97482e-06
1.85966e-05
2.82992e-05
3.58049e-05
4.03605e-05
4.40194e-05
4.83778e-05
5.34875e-05
5.87934e-05
6.25412e-05
6.38415e-05
6.29336e-05
6.06235e-05
5.78673e-05
5.51034e-05
4.90169e-05
2.51497e-05
3.09433e-06
2.02605e-06
2.55203e-06
4.30408e-06
7.52143e-06
1.18726e-05
1.65102e-05
2.06794e-05
2.42846e-05
2.75079e-05
3.04054e-05
3.2726e-05
3.3922e-05
3.38643e-05
3.29958e-05
3.21819e-05
3.25409e-05
3.56818e-05
5.5093e-05
3.2899e-05
8.96438e-06
4.1045e-06
2.93804e-06
3.2995e-06
4.27417e-06
5.72368e-06
7.46996e-06
9.25604e-06
1.08841e-05
1.2254e-05
1.33005e-05
1.39194e-05
1.40168e-05
1.36838e-05
1.32333e-05
1.31809e-05
1.44807e-05
2.08464e-05
6.95122e-05
5.1032e-05
5.82076e-05
6.23582e-05
6.2302e-05
6.06383e-05
5.84723e-05
5.68126e-05
5.58598e-05
5.55304e-05
5.57665e-05
5.65004e-05
5.76878e-05
5.9327e-05
6.11497e-05
6.30227e-05
6.48907e-05
6.68106e-05
6.92188e-05
7.37806e-05
8.55064e-05
5.37901e-05
6.59283e-05
7.11985e-05
7.5272e-05
8.08063e-05
8.74194e-05
9.34536e-05
9.48669e-05
9.31627e-05
8.98734e-05
8.58869e-05
8.17011e-05
7.76172e-05
7.37706e-05
7.0259e-05
6.71303e-05
6.44045e-05
6.21296e-05
6.03732e-05
5.93964e-05
5.38087e-05
0.000148206
0.000168824
0.000172861
0.000170428
0.000167097
0.000160748
0.000151181
0.000138234
0.000123182
0.000107702
9.31565e-05
8.06682e-05
7.10214e-05
6.45577e-05
6.12215e-05
6.09581e-05
6.44898e-05
7.05033e-05
6.10992e-05
5.15789e-05
0.000117458
0.000127311
0.000129183
0.000126206
0.000122603
0.000118776
0.000115472
0.000111534
0.000105506
9.7063e-05
8.67043e-05
7.56858e-05
6.57737e-05
5.82988e-05
5.3943e-05
5.3579e-05
5.9801e-05
7.24432e-05
6.2951e-05
4.98264e-05
8.6443e-05
9.10968e-05
9.36442e-05
9.26355e-05
9.10415e-05
9.21356e-05
9.54978e-05
9.87741e-05
9.95646e-05
9.69601e-05
9.09544e-05
8.23224e-05
7.23306e-05
6.26617e-05
5.56232e-05
5.2817e-05
5.92837e-05
7.52258e-05
6.4891e-05
4.86252e-05
7.13422e-05
7.67833e-05
8.17362e-05
8.0657e-05
7.64504e-05
7.17962e-05
6.94712e-05
6.83754e-05
6.82808e-05
6.83154e-05
6.75627e-05
6.5576e-05
6.25096e-05
5.87625e-05
5.51975e-05
5.55591e-05
6.20493e-05
7.60349e-05
6.62253e-05
4.79155e-05
6.60362e-05
7.48482e-05
8.07089e-05
6.99639e-05
5.27963e-05
3.89175e-05
3.13911e-05
2.82608e-05
2.83768e-05
3.05582e-05
3.39539e-05
3.80293e-05
4.29429e-05
4.87803e-05
5.3727e-05
5.86496e-05
6.50175e-05
7.51859e-05
6.67176e-05
4.77135e-05
6.61501e-05
7.85275e-05
8.15281e-05
6.17309e-05
4.04401e-05
2.4549e-05
1.52851e-05
1.08541e-05
8.81891e-06
1.03158e-05
1.3276e-05
1.88342e-05
2.8489e-05
4.37377e-05
5.41353e-05
6.17297e-05
6.70196e-05
7.34378e-05
6.63589e-05
4.80126e-05
6.91788e-05
8.44625e-05
8.78396e-05
6.49851e-05
4.04576e-05
2.15807e-05
1.06862e-05
4.05711e-06
2.43522e-06
2.27161e-06
4.80316e-06
9.48845e-06
2.47255e-05
4.38582e-05
5.68578e-05
6.45937e-05
6.81071e-05
7.1383e-05
6.52236e-05
4.87391e-05
7.39303e-05
9.15794e-05
0.000100862
7.81526e-05
4.91401e-05
2.14899e-05
4.76499e-06
1.72312e-06
1.02645e-06
8.70455e-07
1.42845e-06
4.91913e-06
2.25127e-05
4.80599e-05
6.1137e-05
6.71947e-05
6.85759e-05
6.90662e-05
6.33676e-05
4.97539e-05
8.00755e-05
9.93139e-05
0.000115571
9.84325e-05
6.63134e-05
2.31261e-05
3.17817e-06
9.79607e-07
7.90868e-07
7.06838e-07
9.69666e-07
7.2593e-06
2.71916e-05
5.51927e-05
6.62111e-05
6.9582e-05
6.84364e-05
6.6132e-05
6.08663e-05
5.08761e-05
8.73468e-05
0.00010746
0.000123484
0.000120142
9.0848e-05
2.75309e-05
2.89412e-06
8.01298e-07
7.98908e-07
7.34925e-07
1.6754e-06
1.24343e-05
4.27768e-05
6.45523e-05
7.17593e-05
7.19278e-05
6.74338e-05
6.23121e-05
5.78863e-05
5.06494e-05
9.37288e-05
0.000114364
0.000126594
0.000135188
0.000121568
6.07917e-05
9.56204e-06
8.14046e-07
7.70453e-07
1.24537e-06
5.80404e-06
3.72103e-05
6.06126e-05
7.53842e-05
7.78757e-05
7.40699e-05
6.53307e-05
5.77648e-05
5.46948e-05
4.52415e-05
9.28483e-05
0.000120062
0.000133923
0.000143206
0.00014986
0.000143497
5.95322e-05
1.31854e-05
7.14832e-06
8.52496e-06
4.24309e-05
6.64103e-05
9.03519e-05
8.74677e-05
8.41632e-05
7.51661e-05
6.23063e-05
5.31742e-05
5.15815e-05
3.49748e-05
7.59027e-05
0.000122648
0.000151957
0.000163608
0.000165789
0.000169875
0.000181658
0.000127012
9.84885e-05
9.40123e-05
0.000100908
0.000120042
0.000106747
9.76834e-05
8.82102e-05
7.43881e-05
5.89789e-05
4.9328e-05
4.87445e-05
3.02181e-05
4.28743e-05
8.21257e-05
0.0001219
0.000149191
0.000158741
0.000154168
0.000144759
0.000139763
0.000140968
0.000143291
0.000139515
0.000125819
0.00011292
0.000101373
8.80941e-05
7.18453e-05
5.59499e-05
4.67364e-05
4.62213e-05
2.68998e-05
2.11132e-05
4.19377e-05
7.62963e-05
0.000109887
0.000129098
0.000135412
0.00013481
0.000132704
0.000132845
0.000132778
0.000128792
0.00011953
0.000109528
9.82589e-05
8.42635e-05
6.82109e-05
5.37019e-05
4.564e-05
4.39013e-05
2.54839e-05
1.17307e-05
1.68954e-05
2.8628e-05
4.72844e-05
6.96147e-05
8.79412e-05
9.88506e-05
0.000103854
0.000105934
0.000106343
0.000104504
0.000100009
9.35619e-05
8.47794e-05
7.3751e-05
6.20327e-05
5.20321e-05
4.60071e-05
4.16127e-05
2.67014e-05
9.44541e-06
9.44562e-06
1.32074e-05
2.08399e-05
3.15543e-05
4.31939e-05
5.32641e-05
6.04698e-05
6.49404e-05
6.72023e-05
6.74908e-05
6.58279e-05
6.21878e-05
5.67548e-05
5.04844e-05
4.51032e-05
4.21285e-05
4.20533e-05
4.22325e-05
3.25444e-05
1.44679e-05
9.82235e-06
9.77275e-06
1.18484e-05
1.52067e-05
1.93674e-05
2.36486e-05
2.73537e-05
3.00614e-05
3.16465e-05
3.21195e-05
3.14979e-05
2.98447e-05
2.75254e-05
2.52915e-05
2.41292e-05
2.51214e-05
3.05863e-05
5.34648e-05
4.72996e-05
5.36201e-05
5.63738e-05
5.62018e-05
5.51947e-05
5.40971e-05
5.33133e-05
5.29423e-05
5.29425e-05
5.32473e-05
5.3789e-05
5.45075e-05
5.535e-05
5.626e-05
5.72155e-05
5.82176e-05
5.93215e-05
6.08255e-05
6.38056e-05
7.09672e-05
5.6855e-05
7.13916e-05
7.62171e-05
8.07347e-05
8.7617e-05
9.56172e-05
0.000102043
0.000101736
9.84188e-05
9.39396e-05
8.91361e-05
8.44238e-05
8.00548e-05
7.60612e-05
7.25298e-05
6.9438e-05
6.6768e-05
6.45167e-05
6.26515e-05
6.11135e-05
5.84399e-05
0.000167457
0.000175724
0.000172267
0.00016758
0.000164815
0.000153809
0.000139035
0.000122383
0.000105642
9.01404e-05
7.64725e-05
6.54359e-05
5.75504e-05
5.28005e-05
5.09544e-05
5.22638e-05
5.79773e-05
6.72077e-05
6.22971e-05
5.61768e-05
0.0001235
0.000120277
0.000115626
0.000110876
0.000107866
0.000100694
9.3385e-05
8.63689e-05
7.84726e-05
6.97876e-05
6.08262e-05
5.21139e-05
4.5128e-05
4.05687e-05
3.86327e-05
4.0309e-05
4.88666e-05
6.54153e-05
6.37944e-05
5.381e-05
8.33943e-05
7.80684e-05
7.56048e-05
7.39122e-05
7.20853e-05
6.90186e-05
6.92798e-05
7.35267e-05
7.84479e-05
8.04774e-05
7.83816e-05
7.22655e-05
6.27277e-05
5.1551e-05
4.22791e-05
3.81946e-05
4.58444e-05
6.52234e-05
6.52611e-05
5.2017e-05
6.26977e-05
5.90022e-05
5.95219e-05
6.13407e-05
6.11729e-05
6.01068e-05
5.92514e-05
6.04091e-05
6.2826e-05
6.53713e-05
6.64956e-05
6.52881e-05
6.16887e-05
5.50592e-05
4.55192e-05
4.1628e-05
4.71659e-05
6.38765e-05
6.57482e-05
5.10348e-05
5.36825e-05
5.27961e-05
5.65402e-05
6.13814e-05
5.61138e-05
4.69733e-05
4.02578e-05
3.63916e-05
3.58706e-05
3.79765e-05
4.15708e-05
4.55429e-05
4.96753e-05
5.22e-05
4.78416e-05
4.57031e-05
4.92244e-05
6.16441e-05
6.51156e-05
5.10288e-05
5.19039e-05
5.36103e-05
5.87303e-05
6.29883e-05
4.82823e-05
3.639e-05
2.83813e-05
2.10028e-05
1.90718e-05
2.01869e-05
2.22643e-05
2.80515e-05
3.96141e-05
5.02151e-05
4.98215e-05
4.89922e-05
5.0971e-05
5.91844e-05
6.351e-05
5.20849e-05
5.48713e-05
5.77626e-05
6.04023e-05
6.00924e-05
4.14569e-05
3.33125e-05
2.47837e-05
1.55081e-05
9.00992e-06
6.26061e-06
8.23846e-06
1.79255e-05
3.75338e-05
5.04641e-05
5.21121e-05
5.17706e-05
5.21278e-05
5.67028e-05
6.11499e-05
5.41719e-05
6.10481e-05
6.28718e-05
6.02353e-05
5.69648e-05
3.64783e-05
3.69857e-05
1.98615e-05
8.08461e-06
3.31214e-06
1.76363e-06
2.98334e-06
1.16644e-05
3.55715e-05
5.3096e-05
5.51179e-05
5.43418e-05
5.22477e-05
5.34759e-05
5.81649e-05
5.71331e-05
6.9598e-05
6.77695e-05
5.97068e-05
5.41362e-05
3.36616e-05
4.03395e-05
1.0463e-05
1.96123e-06
9.53131e-07
8.14251e-07
1.69029e-06
1.26868e-05
4.19346e-05
5.80138e-05
5.92601e-05
5.68445e-05
5.09466e-05
4.89839e-05
5.47596e-05
6.06466e-05
8.02332e-05
7.3659e-05
6.14425e-05
5.24744e-05
3.45973e-05
4.92556e-05
6.2246e-06
9.7059e-07
8.82028e-07
3.02538e-07
1.52992e-05
5.48504e-05
6.61808e-05
6.52941e-05
5.95352e-05
4.86069e-05
4.37954e-05
5.12818e-05
6.40782e-05
9.27304e-05
8.36401e-05
6.98703e-05
6.0778e-05
5.17332e-05
6.74748e-05
1.70452e-05
4.28919e-06
1.37232e-06
1.02496e-06
6.26133e-05
5.81812e-05
7.65351e-05
8.00314e-05
7.45134e-05
6.23158e-05
4.6123e-05
3.91443e-05
4.80804e-05
6.44558e-05
0.000105363
0.000103343
9.1769e-05
8.3105e-05
8.10444e-05
0.000123761
0.000108022
6.15446e-05
5.34448e-06
3.09121e-06
8.96429e-05
0.000137769
0.000111182
9.77666e-05
8.23295e-05
6.29198e-05
4.43836e-05
3.60195e-05
4.5385e-05
4.0042e-05
0.000104581
0.000142016
0.000146673
0.000132601
0.000112833
9.92371e-05
0.000147127
0.000179418
0.000191368
0.000201513
0.000205528
0.000179427
0.000124698
0.000102757
8.25753e-05
6.15857e-05
4.34832e-05
3.45069e-05
4.32129e-05
3.14524e-05
5.3978e-05
0.000100763
0.000135536
0.000148078
0.000136383
0.000107383
7.7787e-05
5.73679e-05
5.20465e-05
6.6345e-05
0.000118804
0.000126732
0.000112793
9.72457e-05
7.88004e-05
5.97007e-05
4.28431e-05
3.42115e-05
4.14198e-05
2.96835e-05
3.14273e-05
5.68668e-05
9.19696e-05
0.00011745
0.000125925
0.000118054
0.000100302
8.40381e-05
7.83028e-05
8.9116e-05
0.000115101
0.000112867
0.000102315
8.92976e-05
7.33554e-05
5.671e-05
4.20099e-05
3.4926e-05
3.97725e-05
2.89441e-05
2.19525e-05
3.12133e-05
4.9483e-05
7.2459e-05
9.15378e-05
0.00010183
0.00010222
9.83457e-05
9.68087e-05
0.000100344
0.000103709
9.8607e-05
9.0161e-05
7.92333e-05
6.62573e-05
5.30896e-05
4.20232e-05
3.70387e-05
3.79631e-05
2.98808e-05
1.85198e-05
1.97171e-05
2.60231e-05
3.66535e-05
4.98588e-05
6.18964e-05
7.0249e-05
7.47062e-05
7.67756e-05
7.75956e-05
7.67236e-05
7.33694e-05
6.79216e-05
6.07486e-05
5.29943e-05
4.63803e-05
4.21235e-05
4.05259e-05
3.68144e-05
3.43139e-05
2.26757e-05
1.86902e-05
1.87016e-05
2.18851e-05
2.65002e-05
3.16559e-05
3.64053e-05
4.0009e-05
4.22184e-05
4.31257e-05
4.28733e-05
4.15291e-05
3.91657e-05
3.62651e-05
3.37479e-05
3.2663e-05
3.37666e-05
3.74785e-05
4.36494e-05
4.5654e-05
5.11107e-05
5.35082e-05
5.37367e-05
5.31103e-05
5.24538e-05
5.19916e-05
5.17767e-05
5.17804e-05
5.19497e-05
5.22327e-05
5.25824e-05
5.29648e-05
5.3367e-05
5.37893e-05
5.42362e-05
5.47311e-05
5.54417e-05
5.69778e-05
6.0621e-05
6.01753e-05
7.57009e-05
8.00543e-05
8.61475e-05
9.47418e-05
0.000104128
0.000111065
0.000108416
0.000103117
9.72307e-05
9.14742e-05
8.61425e-05
8.13898e-05
7.72889e-05
7.3846e-05
7.08546e-05
6.82963e-05
6.61084e-05
6.41617e-05
6.21211e-05
6.4377e-05
0.000178992
0.00017441
0.000168017
0.000168226
0.000171053
0.000156241
0.000132253
0.000108632
8.87893e-05
7.30268e-05
6.09376e-05
5.21463e-05
4.63987e-05
4.31465e-05
4.21719e-05
4.42875e-05
5.1312e-05
6.30584e-05
6.26389e-05
6.11152e-05
0.00012086
0.000109395
0.000104408
0.000104504
0.000107816
9.66781e-05
8.09903e-05
6.72569e-05
5.6492e-05
4.76359e-05
4.00005e-05
3.37077e-05
2.92266e-05
2.62562e-05
2.59618e-05
2.88619e-05
3.82232e-05
5.70439e-05
6.34394e-05
5.72469e-05
7.62428e-05
6.51848e-05
6.11315e-05
6.08648e-05
6.2436e-05
5.47917e-05
4.74236e-05
4.45248e-05
4.61879e-05
5.05092e-05
5.60835e-05
6.04823e-05
5.39703e-05
3.99319e-05
2.90899e-05
2.45983e-05
3.24315e-05
5.30995e-05
6.39818e-05
5.44906e-05
5.24403e-05
4.19095e-05
3.78096e-05
3.65703e-05
3.62979e-05
3.19637e-05
3.26252e-05
3.67699e-05
4.28781e-05
4.90652e-05
5.40819e-05
5.66839e-05
5.47103e-05
4.4401e-05
3.21707e-05
2.60189e-05
3.14704e-05
4.90665e-05
6.32562e-05
5.28915e-05
3.97066e-05
2.9243e-05
2.48116e-05
2.28453e-05
2.24563e-05
2.22341e-05
2.32053e-05
2.56343e-05
2.88223e-05
3.35153e-05
3.90097e-05
4.42071e-05
4.80632e-05
4.47782e-05
3.53418e-05
2.99197e-05
3.19613e-05
4.53358e-05
6.1283e-05
5.26072e-05
3.35431e-05
2.29875e-05
1.82855e-05
1.60606e-05
1.62174e-05
1.53506e-05
1.93521e-05
2.20885e-05
2.21988e-05
2.36648e-05
2.74746e-05
3.16452e-05
4.24872e-05
4.4529e-05
3.80618e-05
3.34244e-05
3.33038e-05
4.24129e-05
5.84732e-05
5.37391e-05
3.16711e-05
2.08287e-05
1.58075e-05
1.35611e-05
1.23972e-05
1.71191e-05
1.42193e-05
1.30224e-05
1.16066e-05
1.05895e-05
1.2954e-05
2.19089e-05
3.86185e-05
4.52211e-05
4.07861e-05
3.66144e-05
3.4392e-05
3.9854e-05
5.51964e-05
5.62456e-05
3.28672e-05
2.14363e-05
1.5745e-05
1.27523e-05
1.00382e-05
1.1188e-05
4.35923e-06
2.1571e-06
2.35153e-06
4.38915e-07
4.18149e-06
1.67468e-05
3.80776e-05
4.74821e-05
4.41786e-05
3.92552e-05
3.37935e-05
3.59786e-05
5.15942e-05
5.99795e-05
3.69003e-05
2.46421e-05
1.79107e-05
1.3722e-05
1.00123e-05
7.13708e-06
4.1514e-06
1.62825e-05
3.83067e-06
3.90665e-05
6.41994e-05
1.04334e-06
4.37273e-05
5.30487e-05
5.00204e-05
4.29993e-05
3.2775e-05
3.15243e-05
4.80035e-05
6.46939e-05
4.47853e-05
3.18779e-05
2.3756e-05
1.81568e-05
1.36472e-05
8.96899e-06
7.76224e-06
1.06979e-05
7.84084e-06
7.27431e-07
6.55459e-06
7.95991e-06
5.96364e-05
6.67507e-05
6.27048e-05
4.96261e-05
3.37008e-05
2.84791e-05
4.48831e-05
6.99556e-05
5.97815e-05
4.76779e-05
3.7988e-05
3.0925e-05
2.57505e-05
1.96062e-05
1.65687e-05
1.60297e-05
8.90047e-06
8.21121e-06
7.89196e-06
6.31086e-05
0.000101135
9.29976e-05
7.64132e-05
5.35705e-05
3.54716e-05
2.77224e-05
4.23315e-05
7.32863e-05
8.73275e-05
8.1257e-05
6.9644e-05
5.86155e-05
4.93449e-05
4.17785e-05
6.67782e-05
6.97562e-05
5.17571e-05
8.37479e-05
7.49083e-05
0.00015513
0.000153215
0.000100066
7.51615e-05
5.3335e-05
3.78081e-05
2.86321e-05
4.04372e-05
4.61111e-05
0.000110238
0.000143636
0.000138193
0.000117048
8.76601e-05
5.89511e-05
4.02304e-05
2.46715e-05
1.99854e-05
1.50631e-05
2.50291e-05
0.000132063
9.70979e-05
8.89827e-05
7.19091e-05
5.45107e-05
4.01635e-05
3.00787e-05
3.90594e-05
3.24539e-05
5.68216e-05
0.00010408
0.0001352
0.000136658
0.000114539
7.78713e-05
4.76173e-05
2.7787e-05
1.8913e-05
1.82633e-05
4.69625e-05
9.84827e-05
9.37957e-05
8.65923e-05
7.31601e-05
5.74256e-05
4.18764e-05
3.12768e-05
3.79985e-05
3.19997e-05
3.85473e-05
6.18039e-05
9.32651e-05
0.00011286
0.000108914
8.79482e-05
6.4274e-05
4.58356e-05
3.64252e-05
3.98867e-05
8.7275e-05
0.000103549
9.54194e-05
8.55792e-05
7.24494e-05
5.73685e-05
4.22049e-05
3.22417e-05
3.69957e-05
3.18414e-05
3.14728e-05
4.11412e-05
5.84768e-05
7.87731e-05
9.14655e-05
8.99548e-05
7.86531e-05
6.64932e-05
6.08048e-05
6.85774e-05
9.45719e-05
9.36919e-05
8.62858e-05
7.69209e-05
6.55556e-05
5.31316e-05
4.12392e-05
3.40566e-05
3.5705e-05
3.27089e-05
2.83329e-05
3.02731e-05
3.69583e-05
4.74078e-05
5.92457e-05
6.87466e-05
7.31703e-05
7.3545e-05
7.35262e-05
7.58113e-05
7.76588e-05
7.43679e-05
6.91765e-05
6.25228e-05
5.51219e-05
4.80007e-05
4.20493e-05
3.829e-05
3.43952e-05
3.60401e-05
3.11264e-05
2.83227e-05
2.83845e-05
3.10196e-05
3.543e-05
4.03168e-05
4.45485e-05
4.74207e-05
4.89053e-05
4.93236e-05
4.88215e-05
4.74247e-05
4.52598e-05
4.27414e-05
4.06373e-05
3.96823e-05
4.00729e-05
4.09437e-05
3.74129e-05
4.43784e-05
4.9188e-05
5.14503e-05
5.2089e-05
5.18772e-05
5.14175e-05
5.10596e-05
5.08454e-05
5.07598e-05
5.07659e-05
5.08247e-05
5.08987e-05
5.09628e-05
5.10136e-05
5.10431e-05
5.10349e-05
5.09726e-05
5.09178e-05
5.11545e-05
5.21293e-05
6.69365e-05
8.26409e-05
8.57044e-05
9.28264e-05
0.000102857
0.000113157
0.000120987
0.000115477
0.000107784
0.000100272
9.34673e-05
8.74744e-05
8.23094e-05
7.79137e-05
7.42193e-05
7.1207e-05
6.8815e-05
6.67492e-05
6.4799e-05
6.2366e-05
7.10258e-05
0.000186277
0.000185156
0.000183999
0.000191708
0.000199512
0.0001794
0.000138256
0.000103916
7.95663e-05
6.29136e-05
5.15737e-05
4.40515e-05
3.93211e-05
3.66498e-05
3.61165e-05
3.79208e-05
4.50303e-05
5.83511e-05
6.20577e-05
6.51558e-05
0.000120378
0.000119638
0.000129818
0.000137932
0.000145006
0.00012058
8.65142e-05
6.10469e-05
4.46716e-05
3.42377e-05
2.74471e-05
2.35836e-05
2.16588e-05