/*--------------------------------*- C++ -*----------------------------------*\
| =========                 |                                                 |
| \\      /  F ield         | OpenFOAM: The Open Source CFD Toolbox           |
|  \\    /   O peration     | Version:                                        |
|   \\  /    A nd           | Website:  www.openfoam.com                      |
|    \\/     M anipulation  |                                                 |
\*---------------------------------------------------------------------------*/
FoamFile
{
    version     2.0;
    format      ascii;
    class       volScalarField;
    location    "1000";
    object      p;
}
// * * * * * * * * * * * * * * * * * * * * * * * * * * * * * * * * * * * * * //

dimensions      [0 2 -2 0 0 0 0];


internalField   nonuniform List<scalar> 
206582
(
0.00452866
0.00440559
0.00402615
0.00364274
0.00334007
0.00310956
0.00294725
0.00285104
0.00281553
0.00282953
0.00287895
0.00295202
0.00304464
0.00316134
0.00331393
0.00351337
0.0037575
0.00403878
0.00430393
0.00459051
0.00422247
0.00404202
0.00363113
0.00322282
0.00286712
0.00255289
0.00227509
0.00205946
0.00193697
0.00191334
0.00197232
0.0020911
0.00225302
0.00245338
0.00269731
0.00299046
0.00332412
0.0036894
0.00403339
0.00442914
0.00375669
0.00348616
0.0029608
0.00243163
0.00193788
0.00148682
0.00110331
0.000828938
0.00069278
0.000690461
0.000794624
0.000974286
0.00120532
0.00147504
0.00178169
0.00212635
0.00249477
0.00287707
0.00322058
0.00359599
0.00317541
0.00284041
0.00221046
0.00157597
0.000988431
0.000472384
7.20059e-05
-0.00017444
-0.000256385
-0.000193745
-2.37876e-05
0.000215216
0.000495247
0.000800374
0.00112375
0.00146157
0.00179363
0.00213051
0.00244654
0.00276959
0.00251368
0.00213987
0.00144947
0.000771623
0.000168761
-0.000330046
-0.000692016
-0.000880751
-0.000889934
-0.000751301
-0.000513958
-0.000223817
8.8854e-05
0.000408588
0.000726461
0.00103427
0.00132079
0.00161587
0.00191586
0.00219396
0.00184907
0.00145798
0.000759955
0.00011735
-0.000444916
-0.000909782
-0.00123684
-0.00138295
-0.00133454
-0.00112829
-0.000829803
-0.000496378
-0.00016083
0.000163797
0.000467845
0.000748388
0.00100561
0.00127469
0.0015695
0.00180706
0.00133412
0.000966536
0.000314797
-0.000294378
-0.000821815
-0.00127058
-0.00159697
-0.00173859
-0.00165986
-0.00139976
-0.00104944
-0.000683046
-0.000337426
-1.65429e-05
0.000273519
0.000536511
0.000779399
0.00103774
0.00133407
0.00153409
0.00101681
0.000722078
0.000183906
-0.000385186
-0.000919297
-0.00139763
-0.00179223
-0.00199402
-0.00191381
-0.00160202
-0.00120395
-0.000819873
-0.000479005
-0.000161329
0.000121243
0.000377445
0.000617339
0.000873887
0.0011727
0.00133783
0.000816814
0.000570416
0.000142508
-0.000327375
-0.000792049
-0.00126582
-0.00178829
-0.00216863
-0.00213307
-0.00176271
-0.00131166
-0.00092884
-0.000597081
-0.000274855
9.59487e-06
0.000267991
0.000510378
0.000766571
0.00106288
0.00119518
0.000659202
0.000439699
4.96144e-05
-0.000404108
-0.00088468
-0.00142669
-0.0020555
-0.00255849
-0.00250003
-0.00197556
-0.0014161
-0.00102245
-0.000677529
-0.000347527
-5.52519e-05
0.000207239
0.000450417
0.000700354
0.000984849
0.00108625
0.000555996
0.000338487
-6.76021e-05
-0.000565168
-0.00111709
-0.00179265
-0.00273802
-0.00340087
-0.00317894
-0.00226882
-0.00154362
-0.0010859
-0.00069675
-0.000356413
-6.43093e-05
0.000194474
0.00042959
0.000661743
0.000923624
0.000996607
0.000521899
0.000318665
-6.07637e-05
-0.000522485
-0.00104632
-0.00177466
-0.00284427
-0.00353656
-0.00338838
-0.00233926
-0.00153919
-0.00102666
-0.000623385
-0.000293019
-1.61053e-05
0.000225376
0.000439523
0.000641592
0.000871875
0.000919974
0.000541078
0.000355722
3.76168e-05
-0.000303364
-0.000687509
-0.0012942
-0.00218029
-0.00281176
-0.00261026
-0.00189287
-0.00126836
-0.000817123
-0.00045872
-0.000165767
7.96132e-05
0.000290425
0.000471828
0.00063618
0.000830166
0.000857953
0.000589261
0.000417391
0.000177593
-2.0725e-05
-0.0002673
-0.000710938
-0.0012714
-0.00164338
-0.00158324
-0.00123403
-0.000847799
-0.000519478
-0.000236989
2.86634e-06
0.00020595
0.00037904
0.00052266
0.000648569
0.000806192
0.000818511
0.000652531
0.000486014
0.000307006
0.000204114
4.43416e-05
-0.000252491
-0.000593526
-0.000820234
-0.000823919
-0.000655649
-0.000433718
-0.000210353
7.32473e-07
0.0001887
0.000350136
0.000486535
0.000596099
0.000688901
0.000812922
0.000813833
0.000729807
0.000562522
0.000414077
0.000352132
0.000239672
3.59307e-05
-0.000176195
-0.000314811
-0.00032917
-0.000236341
-9.26702e-05
7.01521e-05
0.000234105
0.000384809
0.000514854
0.000622293
0.000705111
0.000771312
0.000864893
0.000857141
0.000819293
0.000649428
0.000510984
0.000460071
0.000375906
0.000229471
8.74726e-05
-6.94029e-07
-5.45432e-06
6.40889e-05
0.000179796
0.000318008
0.000460505
0.000592635
0.000705675
0.000796065
0.000861264
0.000907312
0.00097266
0.000957238
0.000917403
0.000746312
0.000606704
0.000545468
0.000471752
0.000359441
0.000258828
0.000205044
0.000218611
0.000293016
0.000408649
0.000545998
0.000686923
0.000816739
0.000926086
0.00101042
0.00106671
0.00109872
0.00113623
0.00111058
0.00100986
0.000849225
0.000705131
0.000620084
0.000539699
0.000443178
0.000362586
0.000324812
0.000347641
0.000428551
0.000551439
0.000697101
0.000846864
0.000985406
0.00110249
0.00119236
0.00125131
0.00128119
0.00130255
0.00128009
0.00104025
0.000912771
0.000776712
0.000682692
0.0006012
0.000518258
0.000455432
0.000431379
0.000460337
0.000545887
0.000676484
0.000832393
0.000994034
0.00114533
0.00127514
0.0013761
0.00144325
0.00147696
0.00148814
0.00146998
0.00409898
0.0038806
0.00351543
0.00311213
0.00274869
0.0024149
0.00212301
0.00189402
0.00175171
0.0017011
0.00173268
0.00183138
0.00198542
0.00219107
0.00245176
0.00277028
0.0031348
0.00353238
0.00388677
0.00430627
0.00375106
0.00350022
0.00312023
0.00268063
0.00225067
0.00182553
0.00141265
0.00107926
0.000884221
0.00083227
0.000898948
0.00105347
0.00127274
0.00154757
0.00188006
0.00227259
0.00271064
0.00318102
0.00359149
0.00406569
0.00332255
0.00301153
0.00255671
0.00201133
0.00145434
0.000921576
0.000459383
0.000133856
-1.8553e-05
-1.25707e-05
0.000115308
0.000328006
0.000596503
0.000906387
0.00125763
0.00165504
0.00208267
0.00252913
0.00288192
0.00326169
0.00274953
0.00238532
0.00184925
0.00120427
0.000558603
-2.28035e-05
-0.000468098
-0.000728359
-0.000794855
-0.000700326
-0.000492349
-0.000214431
0.000100849
0.000435865
0.000785774
0.00115395
0.00152798
0.00191356
0.00220034
0.00249757
0.00211928
0.00172115
0.00113453
0.000438568
-0.000224339
-0.000775217
-0.00116463
-0.00135003
-0.00133214
-0.001152
-0.000868433
-0.000533552
-0.000183013
0.000164418
0.000500421
0.00082831
0.00114464
0.00146859
0.00171238
0.00195703
0.0015106
0.00108919
0.000504468
-0.000153315
-0.000785472
-0.00130826
-0.00166062
-0.0017989
-0.00171822
-0.00146562
-0.00111434
-0.000729053
-0.000350493
4.51513e-06
0.000325393
0.000618063
0.000890306
0.00117021
0.00138946
0.00158957
0.00103065
0.000591152
2.3443e-05
-0.000588102
-0.00116625
-0.00166621
-0.00201767
-0.00214861
-0.00203131
-0.00171646
-0.00130553
-0.000876223
-0.000476537
-0.000115952
0.000188574
0.00045644
0.000704685
0.000960836
0.0011686
0.0013297
0.00074701
0.000326425
-0.000209763
-0.000801739
-0.0013644
-0.00186364
-0.00227719
-0.0024651
-0.00233566
-0.00193457
-0.00146743
-0.00100268
-0.000591785
-0.00022702
6.53174e-05
0.000324294
0.000565798
0.000811184
0.0010147
0.00114154
0.000590597
0.000241992
-0.000212699
-0.000771492
-0.00134066
-0.00188071
-0.00239477
-0.00273311
-0.00260126
-0.00213828
-0.00160258
-0.00112875
-0.000710176
-0.000334641
-3.53138e-05
0.000228408
0.000472094
0.000708206
0.00090698
0.00100285
0.000481033
0.000180491
-0.00023443
-0.000791022
-0.00139384
-0.00203723
-0.00273117
-0.00318037
-0.00303452
-0.00242493
-0.00174542
-0.00121214
-0.000781562
-0.000415639
-9.5612e-05
0.000175877
0.000419128
0.000638968
0.000827224
0.000895338
0.000444069
0.000176802
-0.000247846
-0.00083947
-0.00150928
-0.00229646
-0.00332014
-0.00396283
-0.00369326
-0.00268917
-0.00183236
-0.00124033
-0.000776515
-0.00040168
-9.68978e-05
0.000169638
0.000397855
0.000591903
0.000762189
0.000806807
0.00048629
0.000262797
-0.000138975
-0.000687411
-0.0013185
-0.00212851
-0.00318257
-0.00390143
-0.00368924
-0.00259281
-0.00170369
-0.00111223
-0.000663939
-0.000316929
-3.71731e-05
0.000204052
0.000398645
0.000559354
0.000706045
0.000732567
0.000574494
0.00038976
5.41352e-05
-0.000375528
-0.000857715
-0.0015279
-0.0023878
-0.00294222
-0.00274463
-0.00201282
-0.00134244
-0.000849004
-0.000475934
-0.00018054
6.15777e-05
0.000259706
0.000412211
0.000538152
0.000660127
0.000674386
0.000666204
0.000502166
0.000237583
-4.90065e-05
-0.000365877
-0.000846509
-0.00140659
-0.0017593
-0.00168477
-0.00130082
-0.000880176
-0.000538081
-0.000254367
-1.79208e-05
0.000172678
0.000322235
0.000435818
0.00053174
0.000632063
0.000639129
0.000746287
0.000586307
0.000361555
0.000172394
-2.18383e-05
-0.000337358
-0.000679775
-0.000892973
-0.000887893
-0.000695921
-0.000463184
-0.000241747
-3.36686e-05
0.00014616
0.000289923
0.000398979
0.000480123
0.000551669
0.000634085
0.000636902
0.000829274
0.000663311
0.000451177
0.000300078
0.000171899
-2.74449e-05
-0.000232209
-0.000365793
-0.000382962
-0.000285676
-0.000139859
2.07394e-05
0.000180196
0.00032106
0.000433856
0.000516294
0.000572938
0.000620938
0.000682662
0.000679654
0.000926523
0.000753471
0.000546769
0.000406397
0.000311334
0.00017681
4.32853e-05
-4.26916e-05
-4.94519e-05
2.02405e-05
0.000134769
0.000269139
0.000404897
0.000525458
0.0006213
0.000689153
0.00073106
0.000759591
0.000798562
0.000782385
0.00103386
0.000856011
0.000655362
0.000513717
0.000423734
0.000317476
0.000224663
0.00017913
0.000198969
0.000278137
0.000394868
0.000528714
0.000661371
0.000777212
0.000866911
0.000927189
0.000959036
0.000971456
0.000986388
0.000950331
0.001119
0.000946207
0.000758779
0.000612739
0.000512804
0.000420524
0.000353065
0.00033508
0.00037904
0.000478572
0.000613262
0.000761998
0.000905797
0.00102903
0.00112257
0.0011832
0.0012111
0.0012121
0.00120484
0.00115556
0.00114074
0.000988113
0.000837393
0.000708127
0.00061667
0.000552501
0.000524325
0.000548035
0.000629066
0.000758222
0.000916236
0.00108155
0.00123443
0.0013601
0.00145094
0.00150492
0.00152225
0.00150666
0.00146935
0.00139861
0.0039411
0.00361933
0.0032637
0.00283296
0.00239784
0.00193577
0.0014964
0.00113916
0.000914179
0.000821844
0.000844275
0.000958936
0.001148
0.00140243
0.00172374
0.00211386
0.0025595
0.00305008
0.00349221
0.00405876
0.00352501
0.00319324
0.00284866
0.00236979
0.00183974
0.00125649
0.000669511
0.000222372
-1.22603e-05
-6.19836e-05
2.63757e-05
0.000211292
0.000464899
0.000777598
0.00115427
0.00159998
0.00210011
0.00264193
0.00311525
0.00369966
0.00309389
0.00272089
0.00234227
0.00176934
0.00110558
0.000424095
-0.000174513
-0.000570162
-0.000722948
-0.00068291
-0.00051286
-0.000261303
3.58396e-05
0.00036524
0.000735983
0.0011609
0.00162642
0.00211566
0.00248882
0.00290924
0.00250728
0.00207673
0.00164934
0.00100222
0.000250124
-0.000487359
-0.00106001
-0.00137433
-0.00142431
-0.00127097
-0.000991869
-0.000653731
-0.00030012
5.33283e-05
0.000413088
0.000797408
0.00120009
0.00161817
0.00190182
0.00221003
0.00188118
0.00138508
0.000905511
0.000207796
-0.000543264
-0.0012358
-0.00174192
-0.00196227
-0.00190953
-0.00165254
-0.00127694
-0.000861497
-0.000458578
-8.83729e-05
0.000251405
0.000586544
0.000919453
0.00125699
0.00147845
0.00172492
0.00131265
0.000765492
0.000248553
-0.000471526
-0.00120328
-0.00184033
-0.0022927
-0.00244935
-0.00231231
-0.00196218
-0.00148895
-0.000991347
-0.000536833
-0.000145887
0.000181663
0.000476813
0.000749486
0.00102252
0.00120124
0.00139611
0.000874455
0.000308525
-0.000198184
-0.00089721
-0.00161554
-0.00225241
-0.00270944
-0.0028805
-0.00270434
-0.00227981
-0.00170623
-0.00111161
-0.000606073
-0.000191962
0.000119918
0.00038752
0.000625017
0.000857527
0.00101239
0.00116417
0.000591148
3.57272e-05
-0.000449915
-0.00111827
-0.00181448
-0.00248034
-0.00302889
-0.00328999
-0.00291506
-0.00251724
-0.00194559
-0.00126175
-0.000701978
-0.000258716
4.20087e-05
0.000300651
0.000523842
0.000734966
0.000878827
0.000995736
0.000445795
-6.81236e-05
-0.000533858
-0.00120059
-0.0019161
-0.00263986
-0.00333203
-0.00342671
-0.00344989
-0.00292033
-0.00225753
-0.00153971
-0.000899877
-0.000341758
-3.06072e-05
0.000231897
0.000450219
0.000645253
0.000780845
0.000869004
0.000416597
-4.81014e-05
-0.000523307
-0.00121996
-0.00200906
-0.00286728
-0.00378201
-0.00391327
-0.00398152
-0.00339728
-0.00256726
-0.00171223
-0.00103263
-0.000534253
-6.88363e-05
0.000194525
0.000404732
0.000578237
0.000701409
0.00076619
0.000497075
9.37251e-05
-0.000390067
-0.00110583
-0.00196419
-0.00296268
-0.00419735
-0.00461586
-0.00473663
-0.00377901
-0.00262796
-0.0016919
-0.00100873
-0.00051589
-6.93737e-05
0.000193401
0.000381703
0.000525572
0.000630927
0.000678268
0.000639011
0.000314272
-0.000121999
-0.0007751
-0.00157351
-0.00251854
-0.00363159
-0.00460956
-0.00479514
-0.00346748
-0.00220951
-0.00137979
-0.000805648
-0.000264896
6.79117e-06
0.000225734
0.000372136
0.000481817
0.000567368
0.000603738
0.00076007
0.000516032
0.000187326
-0.000297645
-0.000909675
-0.00167166
-0.00250298
-0.00299348
-0.0032885
-0.00245707
-0.00158511
-0.000971366
-0.000372309
-0.000100507
0.000109275
0.000263537
0.000364906
0.000445037
0.000514492
0.00054583
0.000823024
0.000619821
0.000388517
8.11954e-05
-0.000302611
-0.00080275
-0.0013319
-0.00162472
-0.00146137
-0.00145511
-0.000978744
-0.00040071
-0.000155477
3.81055e-05
0.000183806
0.000286171
0.000357238
0.000419968
0.000480653
0.000511185
0.000879983
0.000677372
0.000473137
0.000241899
-1.36684e-05
-0.00031857
-0.000600822
-0.000737034
-0.000671085
-0.000487346
-0.000322258
-0.000168429
-1.89593e-05
0.000117772
0.000224262
0.000301761
0.000360747
0.00041763
0.000476283
0.000507716
0.000964909
0.00075569
0.000556189
0.000353188
0.000159031
-4.89164e-05
-0.000226903
-0.000317968
-0.000307595
-0.00022609
-0.000131747
-2.56369e-05
8.92736e-05
0.00019646
0.000282697
0.000346915
0.000398388
0.000451928
0.00051062
0.00054212
0.00106367
0.000849373
0.000649445
0.000457502
0.000293918
0.00013769
6.85557e-06
-7.01872e-05
-7.84952e-05
-2.99755e-05
4.63115e-05
0.000139804
0.000239996
0.000331172
0.000403769
0.000456355
0.000496699
0.000540468
0.000592832
0.000617113
0.00116964
0.000953433
0.000755812
0.000572276
0.00042414
0.000295022
0.000196768
0.000146333
0.000151471
0.000203427
0.000283206
0.000376868
0.00047129
0.000552939
0.000614147
0.000654244
0.000679576
0.000703535
0.000736452
0.000738896
0.00124774
0.00103576
0.000842321
0.000666401
0.000527798
0.000419296
0.00034882
0.000327354
0.000357802
0.000430423
0.000527692
0.000633401
0.000732838
0.000813483
0.000869071
0.000900079
0.000911775
0.000914753
0.000922915
0.000899974
0.00127615
0.00108063
0.000903242
0.000750659
0.000636522
0.000562701
0.000534979
0.000559163
0.000632654
0.000741825
0.00086729
0.000990749
0.00109676
0.00117415
0.00121893
0.00123392
0.00122496
0.00120025
0.00117278
0.00112279
0.00411727
0.00370105
0.00335731
0.00291697
0.00242736
0.00182067
0.00120987
0.000699907
0.000373034
0.000219002
0.000205791
0.000300097
0.000480733
0.00073821
0.00107766
0.00150393
0.00200627
0.00257726
0.00311059
0.00383033
0.00357679
0.00317637
0.00287082
0.00238225
0.00178315
0.00102702
0.000235014
-0.000340276
-0.000621873
-0.000686591
-0.00060522
-0.000426181
-0.000178914
0.000129428
0.000509664
0.000973219
0.00150925
0.00210493
0.00263737
0.00333094
0.00308349
0.00264507
0.00231682
0.00173483
0.00101172
0.000165205
-0.000633357
-0.00114253
-0.0013114
-0.00125123
-0.00105891
-0.000789413
-0.000486655
-0.000163599
0.000199368
0.000630427
0.00112081
0.00164512
0.00204988
0.00252102
0.00246492
0.00195987
0.00158592
0.000905072
5.89028e-05
-0.000845801
-0.00158068
-0.00198307
-0.00203323
-0.00182984
-0.00148651
-0.00109951
-0.000722866
-0.000367428
-1.68401e-05
0.000365656
0.000788898
0.0012277
0.00153018
0.0018631
0.00183317
0.00124106
0.000820712
7.28612e-05
-0.000800975
-0.0016622
-0.00228522
-0.00255598
-0.00247784
-0.00214206
-0.001672
-0.00118354
-0.000743805
-0.00037093
-4.7823e-05
0.000270374
0.000600221
0.000945241
0.00117049
0.00143217
0.00126103
0.0005871
0.000123953
-0.000653274
-0.00148513
-0.00226319
-0.00282555
-0.00302916
-0.00285946
-0.00243912
-0.00184553
-0.00124536
-0.000729679
-0.000324049
-1.44026e-05
0.000258667
0.000511335
0.00077652
0.000943691
0.0011466
0.000819242
8.85468e-05
-0.000403608
-0.00117166
-0.00196806
-0.00272501
-0.00331388
-0.0035491
-0.00318314
-0.00277247
-0.00214148
-0.00133439
-0.00074052
-0.000302409
-1.28379e-05
0.000232299
0.000448166
0.000660631
0.000792327
0.000946684
0.000545652
-0.000212243
-0.000724145
-0.00148149
-0.00227643
-0.0030881
-0.00380625
-0.00383376
-0.00379791
-0.00324793
-0.0025292
-0.00167281
-0.000960068
-0.00031891
-4.96188e-05
0.000191021
0.000392807
0.00057702
0.000689058
0.000804708
0.000449313
-0.000309283
-0.000856619
-0.00163599
-0.00248684
-0.00341802
-0.00387098
-0.00449511
-0.00442883
-0.00395565
-0.00315337
-0.0021049
-0.00112837
-0.000521986
-8.80615e-05
0.000157694
0.000352641
0.000516413
0.000613954
0.000699859
0.000519448
-0.000206462
-0.000804796
-0.0016455
-0.00259821
-0.00371744
-0.00431971
-0.00524797
-0.00539625
-0.0051708
-0.0042521
-0.00252536
-0.00132133
-0.000616972
-0.000117779
0.000146145
0.000330404
0.000468912
0.000548189
0.000611759
0.000708065
7.34767e-05
-0.000544225
-0.00142812
-0.00244295
-0.00362797
-0.00466197
-0.00590647
-0.00613238
-0.00548494
-0.00424667
-0.00264323
-0.00144172
-0.000586388
-6.71349e-05
0.000171491
0.000325125
0.000428588
0.000486129
0.000534148
0.000894809
0.000425289
-0.000124746
-0.000935466
-0.0018686
-0.00288702
-0.00416858
-0.0053915
-0.00547369
-0.00442643
-0.00290239
-0.00179896
-0.000933027
-0.000418034
5.02721e-05
0.00022047
0.000323888
0.000389966
0.000429297
0.000468658
0.000954086
0.000673097
0.000289746
-0.000283122
-0.000993615
-0.00178564
-0.00256642
-0.00349563
-0.00336613
-0.0024332
-0.00177874
-0.000971773
-0.000529936
-6.61463e-06
0.000152882
0.000253791
0.000309603
0.000351277
0.000382268
0.000419087
0.000891105
0.000692316
0.000454316
0.000121475
-0.00029163
-0.000780858
-0.00124585
-0.00146038
-0.00166419
-0.00128405
-0.000866842
-0.000531381
-3.93993e-05
0.000113264
0.00019529
0.000248018
0.000282702
0.000319556
0.000352099
0.00039102
0.000873402
0.000676755
0.000473459
0.000236089
-2.52394e-05
-0.000309734
-0.000561227
-0.000659783
-0.000546687
-0.000386152
-0.000253389
-0.000123101
1.34681e-06
9.89349e-05
0.000170336
0.00022175
0.000262409
0.000306859
0.000347296
0.000390752
0.000943537
0.000731709
0.0005248
0.000308665
0.000106104
-8.39252e-05
-0.000233693
-0.000294869
-0.000265857
-0.000201381
-0.000143799
-8.61165e-05
-2.40658e-06
8.3216e-05
0.000156289
0.000215044
0.000267392
0.000323087
0.000375092
0.000423247
0.00106142
0.000836459
0.000621388
0.000402184
0.000206756
4.16386e-05
-7.56149e-05
-0.000136832
-0.000148414
-0.000125327
-8.31551e-05
-2.39292e-05
5.58684e-05
0.000136239
0.000205885
0.00026324
0.000317099
0.000376477
0.000437126
0.000487421
0.00119017
0.000959501
0.000745075
0.0005317
0.000345351
0.000192006
8.2873e-05
2.37805e-05
1.12267e-05
3.47883e-05
8.24893e-05
0.00014698
0.000221312
0.000291345
0.000349564
0.000395887
0.000437608
0.00048465
0.000540554
0.000578872
0.00128571
0.00105594
0.000842724
0.000636756
0.00046134
0.000323374
0.000230805
0.000187771
0.000190791
0.000229103
0.000289399
0.000360574
0.000432315
0.000493662
0.000539892
0.000572965
0.000599311
0.000628443
0.000669558
0.000684796
0.00132427
0.00111373
0.000914141
0.000729174
0.000579181
0.0004722
0.000414228
0.000406452
0.000442409
0.000508657
0.000589502
0.000671317
0.000742476
0.000793915
0.00082365
0.000836491
0.000839665
0.000841303
0.000852393
0.000842096
0.0045111
0.00408287
0.00381143
0.00346583
0.00305836
0.00243364
0.00173745
0.00103491
0.000481781
0.000143395
6.44968e-06
1.44831e-05
0.00012542
0.000330701
0.000641331
0.00106451
0.00159239
0.00221937
0.00283209
0.00369464
0.00386588
0.00345328
0.00320549
0.00277698
0.00221454
0.00136991
0.000390648
-0.000372026
-0.00077985
-0.000920589
-0.000882835
-0.000734195
-0.000524791
-0.000265633
7.13712e-05
0.000508403
0.00104411
0.00166835
0.00224759
0.00304081
0.00331668
0.00284981
0.00255085
0.00200345
0.00128741
0.000293823
-0.000740723
-0.00140547
-0.00162479
-0.00155015
-0.00133061
-0.00106369
-0.000792691
-0.000518498
-0.000206426
0.000189426
0.000675672
0.00122171
0.00166132
0.00219074
0.00270466
0.00214023
0.00176155
0.00107343
0.000174582
-0.000944073
-0.00190726
-0.00237938
-0.00238723
-0.00211958
-0.0017374
-0.00135521
-0.00101558
-0.00069981
-0.00038398
-2.91441e-05
0.000384938
0.000834965
0.001174
0.00155115
0.00211301
0.00141773
0.000955409
0.00013226
-0.000886898
-0.00196345
-0.00272192
-0.00298952
-0.00282399
-0.0023944
-0.00186159
-0.00135154
-0.000927142
-0.000587671
-0.00030446
-3.18682e-05
0.00026562
0.000610384
0.000864543
0.00116441
0.00160001
0.000769379
0.000220219
-0.000719183
-0.0017402
-0.00268609
-0.00328686
-0.00344834
-0.00321223
-0.00266501
-0.00198866
-0.00135403
-0.000840505
-0.00046306
-0.000196268
2.99211e-05
0.000238884
0.00049346
0.000680852
0.000919029
0.00122916
0.000268132
-0.000372067
-0.00138252
-0.00234074
-0.00321879
-0.00386731
-0.00383764
-0.00367534
-0.00311947
-0.00238925
-0.00159743
-0.000794822
-0.000405669
-0.000158658
4.65394e-05
0.000224111
0.000419927
0.000563044
0.000748253
0.00104879
-3.66946e-05
-0.000767178
-0.00180964
-0.00276089
-0.0036917
-0.00413664
-0.00462165
-0.00434927
-0.00368117
-0.00282435
-0.00188184
-0.00105499
-0.000408074
-0.000167487
4.29505e-05
0.000213052
0.000382578
0.000494338
0.000632275
0.0010738
-0.00011788
-0.000931247
-0.00201764
-0.00304654
-0.00413597
-0.00483522
-0.00545622
-0.00504096
-0.00439031
-0.00377668
-0.0024467
-0.00118299
-0.000611633
-0.00016983
4.70419e-05
0.000211732
0.000365054
0.000452327
0.00055384
0.00125683
2.7452e-05
-0.000865834
-0.00200679
-0.00313297
-0.00437229
-0.00552016
-0.00631045
-0.00592311
-0.00721486
-0.00838835
-0.00485266
-0.00189348
-0.000665705
-0.000149449
7.60139e-05
0.00022883
0.000353697
0.000413654
0.000487739
0.00145027
0.000346591
-0.000549243
-0.00172089
-0.00291794
-0.00415662
-0.00572662
-0.00687418
-0.00667801
-0.00885779
-0.0136739
-0.00285264
-0.000656515
-4.9372e-05
0.000142542
0.000264985
0.000342301
0.000376383
0.000429474
0.00144674
0.000691743
-3.07502e-05
-0.00105904
-0.00223275
-0.00339611
-0.00509859
-0.00608936
-0.00662579
-0.00463828
-0.0039527
-5.76508e-05
-0.00186766
-0.000435301
9.96754e-05
0.000217876
0.00028235
0.000321545
0.000340199
0.000379897
0.00123537
0.000867787
0.000422524
-0.000231603
-0.00106858
-0.00204426
-0.00347409
-0.00402951
-0.00413371
-0.0034834
-0.00274543
-0.00192943
-0.000630348
-0.000126756
0.000206489
0.000245247
0.000265462
0.000290539
0.000305881
0.000339828
0.000976987
0.000750764
0.000493676
0.00015398
-0.000254911
-0.000726823
-0.00122535
-0.00215819
-0.00217112
-0.00172723
-0.00126743
-0.00075059
-0.000210542
0.000143296
0.000196387
0.00021276
0.000229618
0.000258765
0.000279107
0.000313898
0.000844271
0.000656182
0.000453488
0.000215417
-3.67837e-05
-0.000292826
-0.000508898
-0.000574867
-0.000582867
-0.000520939
-0.000409959
-0.000231478
-4.78795e-05
6.9731e-05
0.000128345
0.000166632
0.000199956
0.000239776
0.000269544
0.000309876
0.00084921
0.000656717
0.000462648
0.000252856
6.12857e-05
-0.0001011
-0.000207819
-0.000237018
-0.000220703
-0.000186923
-0.000163684
-0.000145477
-6.62278e-05
1.37091e-05
8.29062e-05
0.000141318
0.000192792
0.000245024
0.000286712
0.000335295
0.000957043
0.00074448
0.000540044
0.00032627
0.000142695
-2.31392e-06
-9.7039e-05
-0.000140911
-0.000149948
-0.000143674
-0.000139339
-0.000124738
-6.29395e-05
1.20704e-05
8.62348e-05
0.00015398
0.000216604
0.00027889
0.000334496
0.000391085
0.00110277
0.000875265
0.000665328
0.00044714
0.00025636
0.000104464
4.22259e-07
-5.71399e-05
-7.87265e-05
-7.74156e-05
-6.21347e-05
-2.8329e-05
3.12436e-05
9.94424e-05
0.000166788
0.000229532
0.000289429
0.000351226
0.000414881
0.000469098
0.00122077
0.000985644
0.000773279
0.000556577
0.000367028
0.0002156
0.000110877
5.28491e-05
3.40555e-05
4.33154e-05
7.13535e-05
0.000114923
0.000171112
0.000229491
0.000284662
0.00033618
0.00038687
0.000442499
0.000507975
0.000548324
0.00127459
0.00105229
0.000851204
0.000650652
0.000478857
0.000347375
0.000262855
0.000224635
0.000224987
0.000252164
0.000295179
0.000346624
0.000399839
0.000446858
0.000485234
0.000517756
0.000548789
0.000583911
0.000631676
0.000652687
0.00477061
0.00436354
0.00419433
0.00406327
0.00396614
0.00370136
0.00333667
0.00256179
0.00160587
0.000829448
0.000380556
0.000187534
0.000148436
0.000229535
0.000451845
0.000832787
0.00136153
0.00202375
0.00270715
0.00370393
0.00406623
0.0036873
0.00352023
0.00323926
0.00287904
0.00224189
0.00132131
0.000339624
-0.000363721
-0.000744132
-0.000849072
-0.000783445
-0.000644207
-0.000452835
-0.000163395
0.000242998
0.000761142
0.00139135
0.00200345
0.00288197
0.0035342
0.00306155
0.00280781
0.00236702
0.00177651
0.000855794
-0.000320087
-0.00124834
-0.00163299
-0.00163591
-0.0014516
-0.00122258
-0.00100702
-0.00078066
-0.00050597
-0.000144106
0.000344893
0.000908697
0.00138446
0.00197311
0.00304286
0.00239996
0.00203365
0.0014366
0.000565459
-0.0006646
-0.0019502
-0.0026085
-0.00257386
-0.00221832
-0.00178777
-0.00141075
-0.00113793
-0.000921599
-0.000699494
-0.000395779
-2.38442e-06
0.000485804
0.000881516
0.00131502
0.00263487
0.00177483
0.00129668
0.000544977
-0.000602849
-0.00201492
-0.00311367
-0.00343342
-0.0031192
-0.0025272
-0.00190444
-0.00139205
-0.00103187
-0.000770835
-0.000561497
-0.000366541
-0.000103521
0.000269759
0.00058609
0.000939501
0.00235558
0.00125845
0.000656158
-0.000253931
-0.00162943
-0.00299995
-0.00376711
-0.00391451
-0.00353158
-0.00279763
-0.00201652
-0.00135947
-0.000915909
-0.000615242
-0.000407849
-0.000252909
-9.67273e-05
0.000180456
0.000427252
0.000717747
0.00225357
0.000906494
0.000153046
-0.000912658
-0.0023427
-0.00355744
-0.00433669
-0.00447389
-0.00410808
-0.00331278
-0.00245258
-0.00162506
-0.00100257
-0.00053244
-0.000348847
-0.000198304
-6.62981e-05
0.000145482
0.00033677
0.000570438
0.00235489
0.000755749
-0.000170797
-0.00135637
-0.00265401
-0.00388574
-0.00500866
-0.00543229
-0.00490809
-0.00404406
-0.00309719
-0.0018803
-0.00108428
-0.000598768
-0.000324681
-0.00016726
-2.77384e-05
0.000161728
0.000305829
0.000479422
0.00261651
0.00080668
-0.000278695
-0.00152721
-0.00271241
-0.00405522
-0.00565621
-0.00620821
-0.00577296
-0.00418532
-0.00406849
-0.00238788
-0.00121016
-0.000639267
-0.000299834
-0.000131566
1.98585e-05
0.000192581
0.000305311
0.000431939
0.00285458
0.000973079
-0.000213806
-0.00147371
-0.00264278
-0.00381743
-0.00573097
-0.00630379
-0.00961512
-0.0609278
-0.0617941
0.00126255
-0.000941485
-0.000522747
-0.000216655
-6.40621e-05
8.24224e-05
0.000220011
0.000303643
0.000394148
0.00275218
0.00107758
-6.10301e-05
-0.00124806
-0.00240094
-0.00336286
-0.0052441
-0.00550095
-0.015048
-0.0800788
-0.0393499
-0.0171772
-0.00328215
-0.000422207
-7.46365e-05
4.63569e-05
0.00014702
0.000246009
0.000298856
0.000360459
0.00215667
0.000982397
0.000137808
-0.000797283
-0.00182391
-0.00283124
-0.0046558
-0.00431357
-0.0115008
-0.0326312
-0.0221645
-0.0146876
-0.00298835
-0.000298787
7.00534e-05
0.000135361
0.00019008
0.000252539
0.000282273
0.000326424
0.00143924
0.000815019
0.000322778
-0.000203089
-0.000805332
-0.0014876
-0.00213284
-0.00464821
-0.00536877
-0.00812323
-0.00998654
-0.00725687
-0.000704425
-7.34418e-05
0.000148788
0.000170318
0.000196954
0.000234558
0.000253123
0.000290285
0.000939256
0.000649637
0.000350607
6.86976e-06
-0.000296546
-0.000541811
-0.000664788
-0.00175293
-0.00304282
-0.00349208
-0.00254699
-0.00141007
-0.000326016
7.89274e-05
0.000128393
0.000149059
0.000170956
0.000203324
0.000222842
0.000258542
0.000756731
0.00055938
0.000348262
9.64735e-05
-0.000140294
-0.000308211
-0.000354664
-0.000237401
-6.87618e-05
5.06083e-05
-1.69049e-05
-0.000174971
-9.26829e-05
1.07159e-05
6.61078e-05
0.000105083
0.00013835
0.000178364
0.000205929
0.00024352
0.000721001
0.000546788
0.000362956
0.000154092
-3.99487e-05
-0.000194228
-0.000270399
-0.000257507
-0.000196712
-0.000136305
-0.000129168
-0.000178945
-0.000120024
-4.68651e-05
1.84435e-05
7.59542e-05
0.000125599
0.000175964
0.000213378
0.00025748
0.000810685
0.000622231
0.000434737
0.000228813
5.01982e-05
-9.14758e-05
-0.000188279
-0.000233535
-0.000235149
-0.000212905
-0.000195341
-0.000187132
-0.000131893
-6.2329e-05
9.98685e-06
7.90356e-05
0.000141749
0.000201697
0.000250744
0.000304396
0.000957778
0.000752147
0.000558883
0.000347736
0.000162927
1.5646e-05
-8.65777e-05
-0.000144913
-0.000166958
-0.000167182
-0.000159165
-0.000137204
-8.4361e-05
-1.72564e-05
5.48294e-05
0.000125971
0.00019346
0.000258679
0.000318834
0.000376554
0.00108613
0.000868389
0.00067109
0.000458786
0.000269394
0.000114393
3.14593e-06
-6.31022e-05
-9.17164e-05
-9.46978e-05
-8.10904e-05
-5.06726e-05
-1.1825e-06
5.8375e-05
0.000122346
0.000187925
0.000254354
0.000323793
0.000397779
0.000450007
0.0011459
0.000936962
0.000749106
0.000549417
0.000371804
0.000228291
0.000127329
6.96218e-05
4.82617e-05
5.29069e-05
7.49242e-05
0.000110397
0.000156171
0.000205635
0.000255714
0.00030662
0.000359577
0.000418447
0.00049066
0.000531457
0.00492547
0.00435161
0.00415175
0.0041117
0.00433806
0.00480325
0.00540052
0.00514934
0.00402931
0.00267367
0.00165278
0.00104452
0.000719745
0.000592013
0.000657181
0.00092864
0.00140622
0.00207319
0.0028215
0.00394387
0.00405773
0.00348391
0.00326965
0.00310359
0.00307792
0.00299003
0.00275305
0.00193353
0.000961884
0.00015888
-0.000300216
-0.00047362
-0.000496389
-0.000414841
-0.000179384
0.000221648
0.000745462
0.00137703
0.00201803
0.00296787
0.0035138
0.0027583
0.00248027
0.00224628
0.00202379
0.00154581
0.000761844
-0.000359626
-0.00107558
-0.00136177